 
             +---------------------------------------------------+
             |                                                   |
             |                   WANNIER90                       |
             |                                                   |
             +---------------------------------------------------+
             |                                                   |
             |        Welcome to the Maximally-Localized         |
             |        Generalized Wannier Functions code         |
             |            http://www.wannier.org                 |
             |                                                   |
             |                                                   |
             |  Wannier90 Developer Group:                       |
             |    Giovanni Pizzi    (EPFL)                       |
             |    Valerio Vitale    (Cambridge)                  |
             |    David Vanderbilt  (Rutgers University)         |
             |    Nicola Marzari    (EPFL)                       |
             |    Ivo Souza         (Universidad del Pais Vasco) |
             |    Arash A. Mostofi  (Imperial College London)    |
             |    Jonathan R. Yates (University of Oxford)       |
             |                                                   |
             |  For the full list of Wannier90 3.x authors,      |
             |  please check the code documentation and the      |
             |  README on the GitHub page of the code            |
             |                                                   |
             |                                                   |
             |  Please cite                                      |
             |                                                   |
             |  [ref] "Wannier90 as a community code:            |
             |        new features and applications",            |
             |        G. Pizzi et al., J. Phys. Cond. Matt. 32,  |
             |        165902 (2020).                             |
             |        http://doi.org/10.1088/1361-648X/ab51ff    |
             |                                                   |
             |  in any publications arising from the use of      |
             |  this code. For the method please cite            |
             |                                                   |
             |  [ref] "Maximally Localized Generalised Wannier   |
             |         Functions for Composite Energy Bands"     |
             |         N. Marzari and D. Vanderbilt              |
             |         Phys. Rev. B 56 12847 (1997)              |
             |                                                   |
             |  [ref] "Maximally Localized Wannier Functions     |
             |         for Entangled Energy Bands"               |
             |         I. Souza, N. Marzari and D. Vanderbilt    |
             |         Phys. Rev. B 65 035109 (2001)             |
             |                                                   |
             |                                                   |
             | Copyright (c) 1996-2020                           |
             |        The Wannier90 Developer Group and          |
             |        individual contributors                    |
             |                                                   |
             |      Release: 3.1.0        5th March    2020      |
             |                                                   |
             | This program is free software; you can            |
             | redistribute it and/or modify it under the terms  |
             | of the GNU General Public License as published by |
             | the Free Software Foundation; either version 2 of |
             | the License, or (at your option) any later version|
             |                                                   |
             | This program is distributed in the hope that it   |
             | will be useful, but WITHOUT ANY WARRANTY; without |
             | even the implied warranty of MERCHANTABILITY or   |
             | FITNESS FOR A PARTICULAR PURPOSE. See the GNU     |
             | General Public License for more details.          |
             |                                                   |
             | You should have received a copy of the GNU General|
             | Public License along with this program; if not,   |
             | write to the Free Software Foundation, Inc.,      |
             | 675 Mass Ave, Cambridge, MA 02139, USA.           |
             |                                                   |
             +---------------------------------------------------+
             |    Execution started on  8Apr2024 at 15:14:01     |
             +---------------------------------------------------+
 
 ******************************************************************************
 * -> Using CODATA 2006 constant values                                       *
 *    (http://physics.nist.gov/cuu/Constants/index.html)                      *
 * -> Using Bohr value from CODATA                                            *
 ******************************************************************************
 

 Running in parallel on  16 CPUs

 
                                    ------
                                    SYSTEM
                                    ------
 
                              Lattice Vectors (Ang)
                    a_1    -2.951976   0.000000   2.951976
                    a_2     0.000000   2.951976   2.951976
                    a_3    -2.951976   2.951976   0.000000
 
                   Unit Cell Volume:      51.44800  (Ang^3)
 
                        Reciprocal-Space Vectors (Ang^-1)
                    b_1    -1.064234  -1.064234   1.064234
                    b_2     1.064234   1.064234   1.064234
                    b_3    -1.064234   1.064234  -1.064234
  
 *----------------------------------------------------------------------------*
 |   Site       Fractional Coordinate          Cartesian Coordinate (Ang)     |
 +----------------------------------------------------------------------------+
 | In   1   0.00000   0.00000   0.00000   |    0.00000   0.00000   0.00000    |
 | P    1   0.25000   0.25000   0.25000   |   -1.47599   1.47599   1.47599    |
 *----------------------------------------------------------------------------*
                                ------------
                                K-POINT GRID
                                ------------
  
             Grid size = 12 x 12 x 12      Total points = 1728
  
  
 *---------------------------------- MAIN ------------------------------------*
 |  Number of Wannier Functions               :                 3             |
 |  Number of Objective Wannier Functions     :                 3             |
 |  Number of input Bloch states              :                 3             |
 |  Output verbosity (1=low, 5=high)          :                 1             |
 |  Timing Level (1=low, 5=high)              :                 1             |
 |  Optimisation (0=memory, 3=speed)          :                 3             |
 |  Length Unit                               :               Ang             |
 |  Post-processing setup (write *.nnkp)      :                 F             |
 |  Using Gamma-only branch of algorithms     :                 F             |
 *----------------------------------------------------------------------------*
 *------------------------------- WANNIERISE ---------------------------------*
 |  Total number of iterations                :               500             |
 |  Number of CG steps before reset           :                 5             |
 |  Trial step length for line search         :             2.000             |
 |  Convergence tolerence                     :         0.100E-09             |
 |  Convergence window                        :                -1             |
 |  Iterations between writing output         :                 1             |
 |  Iterations between backing up to disk     :               100             |
 |  Write r^2_nm to file                      :                 F             |
 |  Write xyz WF centres to file              :                 F             |
 |  Write on-site energies <0n|H|0n> to file  :                 F             |
 |  Use guiding centre to control phases      :                 F             |
 |  Use phases for initial projections        :                 F             |
 *----------------------------------------------------------------------------*
 Time to read parameters        0.166 (sec)

 *---------------------------------- K-MESH ----------------------------------*
 +----------------------------------------------------------------------------+
 |                    Distance to Nearest-Neighbour Shells                    |
 |                    ------------------------------------                    |
 |          Shell             Distance (Ang^-1)          Multiplicity         |
 |          -----             -----------------          ------------         |
 |             1                   0.153609                      8            |
 |             2                   0.177372                      6            |
 |             3                   0.250842                     12            |
 |             4                   0.294139                     24            |
 |             5                   0.307218                      8            |
 |             6                   0.354745                      6            |
 |             7                   0.386574                     24            |
 |             8                   0.396617                     24            |
 |             9                   0.434472                     24            |
 |            10                   0.460827                     32            |
 |            11                   0.501685                     12            |
 |            12                   0.524674                     48            |
 |            13                   0.532117                     30            |
 |            14                   0.560900                     24            |
 |            15                   0.581554                     24            |
 |            16                   0.588277                     24            |
 |            17                   0.614436                      8            |
 |            18                   0.633346                     48            |
 |            19                   0.639525                     24            |
 |            20                   0.663666                     48            |
 |            21                   0.681211                     72            |
 |            22                   0.709489                      6            |
 |            23                   0.725927                     24            |
 |            24                   0.731325                     48            |
 |            25                   0.752527                     36            |
 |            26                   0.768045                     56            |
 |            27                   0.773148                     24            |
 |            28                   0.793233                     24            |
 |            29                   0.807969                     72            |
 |            30                   0.812822                     48            |
 |            31                   0.831950                     24            |
 |            32                   0.846012                     48            |
 |            33                   0.868943                     24            |
 |            34                   0.882416                     72            |
 |            35                   0.886862                     30            |
 |            36                   0.904425                     72            |
 +----------------------------------------------------------------------------+
 | The b-vectors are chosen automatically                                     |
 | The following shells are used:   1                                         |
 +----------------------------------------------------------------------------+
 |                        Shell   # Nearest-Neighbours                        |
 |                        -----   --------------------                        |
 |                          1               8                                 |
 +----------------------------------------------------------------------------+
 | Completeness relation is fully satisfied [Eq. (B1), PRB 56, 12847 (1997)]  |
 +----------------------------------------------------------------------------+
 |                  b_k Vectors (Ang^-1) and Weights (Ang^2)                  |
 |                  ----------------------------------------                  |
 |            No.         b_k(x)      b_k(y)      b_k(z)        w_b           |
 |            ---        --------------------------------     --------        |
 |             1        -0.088686    0.088686   -0.088686    15.892728        |
 |             2         0.088686    0.088686    0.088686    15.892728        |
 |             3        -0.088686   -0.088686    0.088686    15.892728        |
 |             4        -0.088686    0.088686    0.088686    15.892728        |
 |             5         0.088686   -0.088686    0.088686    15.892728        |
 |             6        -0.088686   -0.088686   -0.088686    15.892728        |
 |             7         0.088686    0.088686   -0.088686    15.892728        |
 |             8         0.088686   -0.088686   -0.088686    15.892728        |
 +----------------------------------------------------------------------------+
 |                           b_k Directions (Ang^-1)                          |
 |                           -----------------------                          |
 |            No.           x           y           z                         |
 |            ---        --------------------------------                     |
 |             1        -0.088686    0.088686   -0.088686                     |
 |             2         0.088686    0.088686    0.088686                     |
 |             3        -0.088686   -0.088686    0.088686                     |
 |             4        -0.088686    0.088686    0.088686                     |
 +----------------------------------------------------------------------------+
  
 Time to get kmesh              0.720 (sec)
 *============================================================================*
 |                              MEMORY ESTIMATE                               |
 |         Maximum RAM allocated during each phase of the calculation         |
 *============================================================================*
 |                            Wannierise:            7.00 Mb                  |
 |                          plot_wannier:            7.00 Mb                  |
 *----------------------------------------------------------------------------*
  
 Starting a new Wannier90 calculation ...


 Reading overlaps from mp-20351.mmn    :  Created on  8Apr2024 at 15:13:49

 Reading projections from mp-20351.amn :  Created on  8Apr2024 at 15:13:48  with SCDM

 Time to read overlaps          0.087 (sec)

 Writing checkpoint file mp-20351.chk... done

 
 *------------------------------- WANNIERISE ---------------------------------*
 +--------------------------------------------------------------------+<-- CONV
 | Iter  Delta Spread     RMS Gradient      Spread (Ang^2)      Time  |<-- CONV
 +--------------------------------------------------------------------+<-- CONV
 
 ------------------------------------------------------------------------------
 Initial State
  WF centre and spread    1  ( -1.237076,  1.194707,  1.241747 )     4.76620018
  WF centre and spread    2  ( -1.762432,  1.709486,  1.335114 )     4.87420454
  WF centre and spread    3  ( -1.429525,  1.521258,  1.849341 )     4.96252625
  Sum of centres and spreads ( -4.429033,  4.425451,  4.426202 )    14.60293097
 
      0     0.146E+02     0.0000000000       14.6029325772       0.00  <-- CONV
        O_D=      1.4638197 O_OD=      2.4659006 O_TOT=     14.6029326 <-- SPRD
 ------------------------------------------------------------------------------
 Cycle:      1
  WF centre and spread    1  ( -1.233618,  1.198256,  1.240625 )     4.26266728
  WF centre and spread    2  ( -1.759400,  1.710666,  1.335235 )     4.33061642
  WF centre and spread    3  ( -1.435384,  1.517116,  1.850126 )     4.35966384
  Sum of centres and spreads ( -4.428402,  4.426038,  4.425986 )    12.95294754
 
      1    -0.165E+01     0.4184704534       12.9529491494       0.01  <-- CONV
        O_D=      0.7965415 O_OD=      1.4831953 O_TOT=     12.9529491 <-- SPRD
 Delta: O_D= -0.6672782E+00 O_OD= -0.9827053E+00 O_TOT= -0.1649983E+01 <-- DLTA
 ------------------------------------------------------------------------------
 Cycle:      2
  WF centre and spread    1  ( -1.234372,  1.205469,  1.242280 )     3.96407864
  WF centre and spread    2  ( -1.752768,  1.709106,  1.337604 )     4.00521772
  WF centre and spread    3  ( -1.440748,  1.512009,  1.845768 )     4.00419420
  Sum of centres and spreads ( -4.427889,  4.426584,  4.425652 )    11.97349056
 
      2    -0.979E+00     0.4661469839       11.9734921684       0.01  <-- CONV
        O_D=      0.3610894 O_OD=      0.9391904 O_TOT=     11.9734922 <-- SPRD
 Delta: O_D= -0.4354521E+00 O_OD= -0.5440049E+00 O_TOT= -0.9794570E+00 <-- DLTA
 ------------------------------------------------------------------------------
 Cycle:      3
  WF centre and spread    1  ( -1.236140,  1.209786,  1.244179 )     3.83559255
  WF centre and spread    2  ( -1.748732,  1.707199,  1.339245 )     3.86530254
  WF centre and spread    3  ( -1.442789,  1.509786,  1.841896 )     3.84763210
  Sum of centres and spreads ( -4.427661,  4.426771,  4.425320 )    11.54852719
 
      3    -0.425E+00     0.3911285360       11.5485287899       0.02  <-- CONV
        O_D=      0.1641676 O_OD=      0.7111489 O_TOT=     11.5485288 <-- SPRD
 Delta: O_D= -0.1969219E+00 O_OD= -0.2280415E+00 O_TOT= -0.4249634E+00 <-- DLTA
 ------------------------------------------------------------------------------
 Cycle:      4
  WF centre and spread    1  ( -1.237378,  1.211879,  1.245445 )     3.77426572
  WF centre and spread    2  ( -1.746797,  1.705894,  1.339950 )     3.80112872
  WF centre and spread    3  ( -1.443279,  1.509141,  1.839583 )     3.78107619
  Sum of centres and spreads ( -4.427455,  4.426914,  4.424978 )    11.35647063
 
      4    -0.192E+00     0.2917900269       11.3564722363       0.03  <-- CONV
        O_D=      0.0764868 O_OD=      0.6067731 O_TOT=     11.3564722 <-- SPRD
 Delta: O_D= -0.8768076E-01 O_OD= -0.1043758E+00 O_TOT= -0.1920566E+00 <-- DLTA
 ------------------------------------------------------------------------------
 Cycle:      5
  WF centre and spread    1  ( -1.237980,  1.212739,  1.246119 )     3.74755916
  WF centre and spread    2  ( -1.746038,  1.705225,  1.340004 )     3.77396990
  WF centre and spread    3  ( -1.443180,  1.509150,  1.838465 )     3.75522263
  Sum of centres and spreads ( -4.427198,  4.427114,  4.424588 )    11.27675169
 
      5    -0.797E-01     0.1775653614       11.2767532929       0.03  <-- CONV
        O_D=      0.0485196 O_OD=      0.5550214 O_TOT=     11.2767533 <-- SPRD
 Delta: O_D= -0.2796721E-01 O_OD= -0.5175173E-01 O_TOT= -0.7971894E-01 <-- DLTA
 ------------------------------------------------------------------------------
 Cycle:      6
  WF centre and spread    1  ( -1.238232,  1.213121,  1.246506 )     3.73200259
  WF centre and spread    2  ( -1.745735,  1.704920,  1.339807 )     3.75929712
  WF centre and spread    3  ( -1.442975,  1.509292,  1.837895 )     3.74513348
  Sum of centres and spreads ( -4.426941,  4.427334,  4.424208 )    11.23643319
 
      6    -0.403E-01     0.1278164712       11.2364347937       0.04  <-- CONV
        O_D=      0.0351461 O_OD=      0.5280764 O_TOT=     11.2364348 <-- SPRD
 Delta: O_D= -0.1337349E-01 O_OD= -0.2694500E-01 O_TOT= -0.4031850E-01 <-- DLTA
 ------------------------------------------------------------------------------
 Cycle:      7
  WF centre and spread    1  ( -1.238231,  1.213124,  1.246574 )     3.72732682
  WF centre and spread    2  ( -1.745750,  1.704911,  1.339709 )     3.75482407
  WF centre and spread    3  ( -1.442920,  1.509341,  1.837868 )     3.74185280
  Sum of centres and spreads ( -4.426901,  4.427375,  4.424151 )    11.22400369
 
      7    -0.124E-01     0.0869803018       11.2240052948       0.04  <-- CONV
        O_D=      0.0297784 O_OD=      0.5210146 O_TOT=     11.2240053 <-- SPRD
 Delta: O_D= -0.5367715E-02 O_OD= -0.7061784E-02 O_TOT= -0.1242950E-01 <-- DLTA
 ------------------------------------------------------------------------------
 Cycle:      8
  WF centre and spread    1  ( -1.238213,  1.213117,  1.246732 )     3.72251844
  WF centre and spread    2  ( -1.745798,  1.704907,  1.339472 )     3.75094894
  WF centre and spread    3  ( -1.442795,  1.509451,  1.837815 )     3.74133459
  Sum of centres and spreads ( -4.426806,  4.427475,  4.424019 )    11.21480196
 
      8    -0.920E-02     0.0568170130       11.2148035669       0.05  <-- CONV
        O_D=      0.0279019 O_OD=      0.5136893 O_TOT=     11.2148036 <-- SPRD
 Delta: O_D= -0.1876445E-02 O_OD= -0.7325282E-02 O_TOT= -0.9201728E-02 <-- DLTA
 ------------------------------------------------------------------------------
 Cycle:      9
  WF centre and spread    1  ( -1.238186,  1.213134,  1.246962 )     3.71822121
  WF centre and spread    2  ( -1.745837,  1.704908,  1.339173 )     3.74788278
  WF centre and spread    3  ( -1.442674,  1.509548,  1.837737 )     3.74241651
  Sum of centres and spreads ( -4.426697,  4.427589,  4.423872 )    11.20852049
 
      9    -0.628E-02     0.0455983336       11.2085220956       0.05  <-- CONV
        O_D=      0.0269780 O_OD=      0.5083318 O_TOT=     11.2085221 <-- SPRD
 Delta: O_D= -0.9239367E-03 O_OD= -0.5357535E-02 O_TOT= -0.6281471E-02 <-- DLTA
 ------------------------------------------------------------------------------
 Cycle:     10
  WF centre and spread    1  ( -1.238176,  1.213196,  1.247249 )     3.71473860
  WF centre and spread    2  ( -1.745834,  1.704898,  1.338889 )     3.74551660
  WF centre and spread    3  ( -1.442614,  1.509577,  1.837630 )     3.74398439
  Sum of centres and spreads ( -4.426624,  4.427672,  4.423768 )    11.20423959
 
     10    -0.428E-02     0.0393249906       11.2042411981       0.06  <-- CONV
        O_D=      0.0262164 O_OD=      0.5048125 O_TOT=     11.2042412 <-- SPRD
 Delta: O_D= -0.7616150E-03 O_OD= -0.3519283E-02 O_TOT= -0.4280898E-02 <-- DLTA
 ------------------------------------------------------------------------------
 Cycle:     11
  WF centre and spread    1  ( -1.238191,  1.213308,  1.247612 )     3.71202504
  WF centre and spread    2  ( -1.745786,  1.704874,  1.338619 )     3.74364495
  WF centre and spread    3  ( -1.442621,  1.509533,  1.837484 )     3.74556650
  Sum of centres and spreads ( -4.426598,  4.427714,  4.423715 )    11.20123649
 
     11    -0.300E-02     0.0306286173       11.2012380915       0.06  <-- CONV
        O_D=      0.0255882 O_OD=      0.5024376 O_TOT=     11.2012381 <-- SPRD
 Delta: O_D= -0.6281973E-03 O_OD= -0.2374909E-02 O_TOT= -0.3003107E-02 <-- DLTA
 ------------------------------------------------------------------------------
 Cycle:     12
  WF centre and spread    1  ( -1.238204,  1.213394,  1.247925 )     3.71054320
  WF centre and spread    2  ( -1.745744,  1.704860,  1.338411 )     3.74257596
  WF centre and spread    3  ( -1.442650,  1.509474,  1.837365 )     3.74662301
  Sum of centres and spreads ( -4.426599,  4.427729,  4.423701 )    11.19974217
 
     12    -0.149E-02     0.0233089097       11.1997437770       0.07  <-- CONV
        O_D=      0.0252905 O_OD=      0.5012409 O_TOT=     11.1997438 <-- SPRD
 Delta: O_D= -0.2976374E-03 O_OD= -0.1196677E-02 O_TOT= -0.1494315E-02 <-- DLTA
 ------------------------------------------------------------------------------
 Cycle:     13
  WF centre and spread    1  ( -1.238198,  1.213391,  1.247994 )     3.71033994
  WF centre and spread    2  ( -1.745752,  1.704869,  1.338356 )     3.74234500
  WF centre and spread    3  ( -1.442648,  1.509473,  1.837348 )     3.74651691
  Sum of centres and spreads ( -4.426598,  4.427733,  4.423698 )    11.19920185
 
     13    -0.540E-03     0.0185082210       11.1992034505       0.07  <-- CONV
        O_D=      0.0250699 O_OD=      0.5009212 O_TOT=     11.1992035 <-- SPRD
 Delta: O_D= -0.2206327E-03 O_OD= -0.3196938E-03 O_TOT= -0.5403265E-03 <-- DLTA
 ------------------------------------------------------------------------------
 Cycle:     14
  WF centre and spread    1  ( -1.238170,  1.213371,  1.248250 )     3.71001965
  WF centre and spread    2  ( -1.745787,  1.704906,  1.338149 )     3.74193720
  WF centre and spread    3  ( -1.442638,  1.509469,  1.837289 )     3.74662363
  Sum of centres and spreads ( -4.426596,  4.427746,  4.423688 )    11.19858048
 
     14    -0.621E-03     0.0123200308       11.1985820803       0.08  <-- CONV
        O_D=      0.0250393 O_OD=      0.5003305 O_TOT=     11.1985821 <-- SPRD
 Delta: O_D= -0.3059345E-04 O_OD= -0.5907768E-03 O_TOT= -0.6213703E-03 <-- DLTA
 ------------------------------------------------------------------------------
 Cycle:     15
  WF centre and spread    1  ( -1.238123,  1.213330,  1.248575 )     3.70970237
  WF centre and spread    2  ( -1.745848,  1.704961,  1.337875 )     3.74150028
  WF centre and spread    3  ( -1.442624,  1.509469,  1.837228 )     3.74688388
  Sum of centres and spreads ( -4.426596,  4.427759,  4.423678 )    11.19808653
 
     15    -0.494E-03     0.0128435649       11.1980881343       0.08  <-- CONV
        O_D=      0.0249698 O_OD=      0.4999060 O_TOT=     11.1980881 <-- SPRD
 Delta: O_D= -0.6951120E-04 O_OD= -0.4244348E-03 O_TOT= -0.4939460E-03 <-- DLTA
 ------------------------------------------------------------------------------
 Cycle:     16
  WF centre and spread    1  ( -1.238067,  1.213270,  1.248879 )     3.70945693
  WF centre and spread    2  ( -1.745925,  1.705020,  1.337605 )     3.74113367
  WF centre and spread    3  ( -1.442604,  1.509481,  1.837184 )     3.74719811
  Sum of centres and spreads ( -4.426596,  4.427771,  4.423669 )    11.19778870
 
     16    -0.298E-03     0.0103499472       11.1977903081       0.08  <-- CONV
        O_D=      0.0249338 O_OD=      0.4996442 O_TOT=     11.1977903 <-- SPRD
 Delta: O_D= -0.3600445E-04 O_OD= -0.2618218E-03 O_TOT= -0.2978262E-03 <-- DLTA
 ------------------------------------------------------------------------------
 Cycle:     17
  WF centre and spread    1  ( -1.237972,  1.213159,  1.249303 )     3.70916356
  WF centre and spread    2  ( -1.746059,  1.705116,  1.337204 )     3.74065755
  WF centre and spread    3  ( -1.442559,  1.509518,  1.837142 )     3.74768768
  Sum of centres and spreads ( -4.426590,  4.427793,  4.423649 )    11.19750879
 
     17    -0.280E-03     0.0087105795       11.1975103967       0.09  <-- CONV
        O_D=      0.0249245 O_OD=      0.4993736 O_TOT=     11.1975104 <-- SPRD
 Delta: O_D= -0.9312719E-05 O_OD= -0.2705987E-03 O_TOT= -0.2799114E-03 <-- DLTA
 ------------------------------------------------------------------------------
 Cycle:     18
  WF centre and spread    1  ( -1.237833,  1.212989,  1.249850 )     3.70882720
  WF centre and spread    2  ( -1.746257,  1.705252,  1.336659 )     3.74005296
  WF centre and spread    3  ( -1.442486,  1.509586,  1.837106 )     3.74834043
  Sum of centres and spreads ( -4.426576,  4.427827,  4.423615 )    11.19722059
 
     18    -0.288E-03     0.0095747216       11.1972221966       0.09  <-- CONV
        O_D=      0.0249325 O_OD=      0.4990774 O_TOT=     11.1972222 <-- SPRD
 Delta: O_D=  0.8040264E-05 O_OD= -0.2962404E-03 O_TOT= -0.2882001E-03 <-- DLTA
 ------------------------------------------------------------------------------
 Cycle:     19
  WF centre and spread    1  ( -1.237810,  1.212955,  1.249909 )     3.70876991
  WF centre and spread    2  ( -1.746292,  1.705273,  1.336588 )     3.73994573
  WF centre and spread    3  ( -1.442470,  1.509605,  1.837111 )     3.74831435
  Sum of centres and spreads ( -4.426572,  4.427832,  4.423607 )    11.19702999
 
     19    -0.191E-03     0.0106688290       11.1970315896       0.10  <-- CONV
        O_D=      0.0248519 O_OD=      0.4989674 O_TOT=     11.1970316 <-- SPRD
 Delta: O_D= -0.8065824E-04 O_OD= -0.1099487E-03 O_TOT= -0.1906070E-03 <-- DLTA
 ------------------------------------------------------------------------------
 Cycle:     20
  WF centre and spread    1  ( -1.237755,  1.212871,  1.250057 )     3.70872952
  WF centre and spread    2  ( -1.746377,  1.705324,  1.336414 )     3.73978755
  WF centre and spread    3  ( -1.442432,  1.509649,  1.837120 )     3.74836097
  Sum of centres and spreads ( -4.426564,  4.427844,  4.423592 )    11.19687803
 
     20    -0.152E-03     0.0073187878       11.1968796347       0.10  <-- CONV
        O_D=      0.0248271 O_OD=      0.4988402 O_TOT=     11.1968796 <-- SPRD
 Delta: O_D= -0.2472028E-04 O_OD= -0.1272346E-03 O_TOT= -0.1519549E-03 <-- DLTA
 ------------------------------------------------------------------------------
 Cycle:     21
  WF centre and spread    1  ( -1.237653,  1.212713,  1.250363 )     3.70870683
  WF centre and spread    2  ( -1.746540,  1.705421,  1.336074 )     3.73953827
  WF centre and spread    3  ( -1.442363,  1.509728,  1.837134 )     3.74846663
  Sum of centres and spreads ( -4.426556,  4.427861,  4.423571 )    11.19671173
 
     21    -0.166E-03     0.0065764261       11.1967133359       0.10  <-- CONV
        O_D=      0.0248282 O_OD=      0.4986728 O_TOT=     11.1967133 <-- SPRD
 Delta: O_D=  0.1048436E-05 O_OD= -0.1673472E-03 O_TOT= -0.1662987E-03 <-- DLTA
 ------------------------------------------------------------------------------
 Cycle:     22
  WF centre and spread    1  ( -1.237480,  1.212436,  1.250942 )     3.70872615
  WF centre and spread    2  ( -1.746823,  1.705589,  1.335462 )     3.73913222
  WF centre and spread    3  ( -1.442252,  1.509855,  1.837145 )     3.74862611
  Sum of centres and spreads ( -4.426555,  4.427880,  4.423550 )    11.19648448
 
     22    -0.227E-03     0.0074274515       11.1964860809       0.11  <-- CONV
        O_D=      0.0248531 O_OD=      0.4984207 O_TOT=     11.1964861 <-- SPRD
 Delta: O_D=  0.2489297E-04 O_OD= -0.2521480E-03 O_TOT= -0.2272550E-03 <-- DLTA
 ------------------------------------------------------------------------------
 Cycle:     23
  WF centre and spread    1  ( -1.237201,  1.211978,  1.251986 )     3.70884328
  WF centre and spread    2  ( -1.747291,  1.705867,  1.334402 )     3.73847488
  WF centre and spread    3  ( -1.442075,  1.510057,  1.837145 )     3.74882505
  Sum of centres and spreads ( -4.426567,  4.427901,  4.423534 )    11.19614321
 
     23    -0.341E-03     0.0089452903       11.1961448114       0.11  <-- CONV
        O_D=      0.0248736 O_OD=      0.4980589 O_TOT=     11.1961448 <-- SPRD
 Delta: O_D=  0.2050833E-04 O_OD= -0.3617779E-03 O_TOT= -0.3412696E-03 <-- DLTA
 ------------------------------------------------------------------------------
 Cycle:     24
  WF centre and spread    1  ( -1.236877,  1.211421,  1.253354 )     3.70907075
  WF centre and spread    2  ( -1.747858,  1.706200,  1.333046 )     3.73768836
  WF centre and spread    3  ( -1.441856,  1.510303,  1.837125 )     3.74898625
  Sum of centres and spreads ( -4.426591,  4.427924,  4.423525 )    11.19574536
 
     24    -0.398E-03     0.0104099148       11.1957469672       0.11  <-- CONV
        O_D=      0.0249793 O_OD=      0.4975553 O_TOT=     11.1957470 <-- SPRD
 Delta: O_D=  0.1057467E-03 O_OD= -0.5035908E-03 O_TOT= -0.3978442E-03 <-- DLTA
 ------------------------------------------------------------------------------
 Cycle:     25
  WF centre and spread    1  ( -1.236871,  1.211406,  1.253420 )     3.70901378
  WF centre and spread    2  ( -1.747873,  1.706210,  1.332990 )     3.73757706
  WF centre and spread    3  ( -1.441848,  1.510310,  1.837117 )     3.74882766
  Sum of centres and spreads ( -4.426592,  4.427925,  4.423527 )    11.19541851
 
     25    -0.327E-03     0.0139361642       11.1954201103       0.12  <-- CONV
        O_D=      0.0248523 O_OD=      0.4973555 O_TOT=     11.1954201 <-- SPRD
 Delta: O_D= -0.1270256E-03 O_OD= -0.1998312E-03 O_TOT= -0.3268569E-03 <-- DLTA
 ------------------------------------------------------------------------------
 Cycle:     26
  WF centre and spread    1  ( -1.236853,  1.211357,  1.253610 )     3.70904312
  WF centre and spread    2  ( -1.747922,  1.706239,  1.332825 )     3.73745685
  WF centre and spread    3  ( -1.441824,  1.510332,  1.837097 )     3.74861500
  Sum of centres and spreads ( -4.426598,  4.427928,  4.423532 )    11.19511497
 
     26    -0.304E-03     0.0094739331       11.1951165777       0.12  <-- CONV
        O_D=      0.0248223 O_OD=      0.4970819 O_TOT=     11.1951166 <-- SPRD
 Delta: O_D= -0.2997235E-04 O_OD= -0.2735602E-03 O_TOT= -0.3035326E-03 <-- DLTA
 ------------------------------------------------------------------------------
 Cycle:     27
  WF centre and spread    1  ( -1.236823,  1.211285,  1.253861 )     3.70911873
  WF centre and spread    2  ( -1.747993,  1.706281,  1.332605 )     3.73733697
  WF centre and spread    3  ( -1.441792,  1.510361,  1.837075 )     3.74842774
  Sum of centres and spreads ( -4.426608,  4.427927,  4.423541 )    11.19488345
 
     27    -0.232E-03     0.0090329526       11.1948850494       0.12  <-- CONV
        O_D=      0.0247824 O_OD=      0.4968904 O_TOT=     11.1948850 <-- SPRD
 Delta: O_D= -0.3999333E-04 O_OD= -0.1915350E-03 O_TOT= -0.2315283E-03 <-- DLTA
 ------------------------------------------------------------------------------
 Cycle:     28
  WF centre and spread    1  ( -1.236788,  1.211204,  1.254111 )     3.70919263
  WF centre and spread    2  ( -1.748072,  1.706326,  1.332380 )     3.73722647
  WF centre and spread    3  ( -1.441758,  1.510395,  1.837059 )     3.74832361
  Sum of centres and spreads ( -4.426619,  4.427925,  4.423550 )    11.19474272
 
     28    -0.141E-03     0.0072104599       11.1947443215       0.13  <-- CONV
        O_D=      0.0247697 O_OD=      0.4967624 O_TOT=     11.1947443 <-- SPRD
 Delta: O_D= -0.1269505E-04 O_OD= -0.1280329E-03 O_TOT= -0.1407279E-03 <-- DLTA
 ------------------------------------------------------------------------------
 Cycle:     29
  WF centre and spread    1  ( -1.236731,  1.211081,  1.254455 )     3.70927566
  WF centre and spread    2  ( -1.748194,  1.706394,  1.332055 )     3.73706890
  WF centre and spread    3  ( -1.441705,  1.510452,  1.837046 )     3.74827366
  Sum of centres and spreads ( -4.426629,  4.427926,  4.423555 )    11.19461821
 
     29    -0.125E-03     0.0059141791       11.1946198147       0.13  <-- CONV
        O_D=      0.0247751 O_OD=      0.4966324 O_TOT=     11.1946198 <-- SPRD
 Delta: O_D=  0.5463596E-05 O_OD= -0.1299704E-03 O_TOT= -0.1245068E-03 <-- DLTA
 ------------------------------------------------------------------------------
 Cycle:     30
  WF centre and spread    1  ( -1.236626,  1.210864,  1.255025 )     3.70938948
  WF centre and spread    2  ( -1.748407,  1.706513,  1.331498 )     3.73678710
  WF centre and spread    3  ( -1.441606,  1.510558,  1.837031 )     3.74827955
  Sum of centres and spreads ( -4.426639,  4.427936,  4.423553 )    11.19445614
 
     30    -0.162E-03     0.0066362030       11.1944577433       0.13  <-- CONV
        O_D=      0.0248213 O_OD=      0.4964242 O_TOT=     11.1944577 <-- SPRD
 Delta: O_D=  0.4615096E-04 O_OD= -0.2082223E-03 O_TOT= -0.1620713E-03 <-- DLTA
 ------------------------------------------------------------------------------
 Cycle:     31
  WF centre and spread    1  ( -1.236610,  1.210836,  1.255079 )     3.70934851
  WF centre and spread    2  ( -1.748435,  1.706529,  1.331434 )     3.73670303
  WF centre and spread    3  ( -1.441591,  1.510575,  1.837034 )     3.74826178
  Sum of centres and spreads ( -4.426636,  4.427940,  4.423547 )    11.19431332
 
     31    -0.143E-03     0.0091091083       11.1943149243       0.14  <-- CONV
        O_D=      0.0247637 O_OD=      0.4963389 O_TOT=     11.1943149 <-- SPRD
 Delta: O_D= -0.5753920E-04 O_OD= -0.8527984E-04 O_TOT= -0.1428190E-03 <-- DLTA
 ------------------------------------------------------------------------------
 Cycle:     32
  WF centre and spread    1  ( -1.236571,  1.210768,  1.255216 )     3.70932298
  WF centre and spread    2  ( -1.748501,  1.706568,  1.331278 )     3.73657548
  WF centre and spread    3  ( -1.441557,  1.510615,  1.837040 )     3.74830111
  Sum of centres and spreads ( -4.426629,  4.427951,  4.423534 )    11.19419957
 
     32    -0.114E-03     0.0062710565       11.1942011732       0.14  <-- CONV
        O_D=      0.0247466 O_OD=      0.4962423 O_TOT=     11.1942012 <-- SPRD
 Delta: O_D= -0.1712032E-04 O_OD= -0.9663083E-04 O_TOT= -0.1137511E-03 <-- DLTA
 ------------------------------------------------------------------------------
 Cycle:     33
  WF centre and spread    1  ( -1.236498,  1.210631,  1.255508 )     3.70931441
  WF centre and spread    2  ( -1.748634,  1.706644,  1.330960 )     3.73635935
  WF centre and spread    3  ( -1.441491,  1.510691,  1.837049 )     3.74839176
  Sum of centres and spreads ( -4.426623,  4.427965,  4.423517 )    11.19406551
 
     33    -0.134E-03     0.0058385319       11.1940671135       0.14  <-- CONV
        O_D=      0.0247445 O_OD=      0.4961103 O_TOT=     11.1940671 <-- SPRD
 Delta: O_D= -0.2089436E-05 O_OD= -0.1319702E-03 O_TOT= -0.1340597E-03 <-- DLTA
 ------------------------------------------------------------------------------
 Cycle:     34
  WF centre and spread    1  ( -1.236375,  1.210389,  1.256065 )     3.70934564
  WF centre and spread    2  ( -1.748869,  1.706776,  1.330380 )     3.73599894
  WF centre and spread    3  ( -1.441380,  1.510818,  1.837056 )     3.74853109
  Sum of centres and spreads ( -4.426624,  4.427982,  4.423501 )    11.19387567
 
     34    -0.190E-03     0.0068378194       11.1938772760       0.15  <-- CONV
        O_D=      0.0247630 O_OD=      0.4959020 O_TOT=     11.1938773 <-- SPRD
 Delta: O_D=  0.1846646E-04 O_OD= -0.2083040E-03 O_TOT= -0.1898375E-03 <-- DLTA
 ------------------------------------------------------------------------------
 Cycle:     35
  WF centre and spread    1  ( -1.236200,  1.210026,  1.256958 )     3.70945794
  WF centre and spread    2  ( -1.749220,  1.706970,  1.329480 )     3.73547658
  WF centre and spread    3  ( -1.441215,  1.511003,  1.837052 )     3.74868478
  Sum of centres and spreads ( -4.426636,  4.427999,  4.423490 )    11.19361929
 
     35    -0.256E-03     0.0081030209       11.1936208974       0.15  <-- CONV
        O_D=      0.0247689 O_OD=      0.4956397 O_TOT=     11.1936209 <-- SPRD
 Delta: O_D=  0.5914373E-05 O_OD= -0.2622929E-03 O_TOT= -0.2563786E-03 <-- DLTA
 ------------------------------------------------------------------------------
 Cycle:     36
  WF centre and spread    1  ( -1.236011,  1.209604,  1.258075 )     3.70966105
  WF centre and spread    2  ( -1.749625,  1.707193,  1.328379 )     3.73488413
  WF centre and spread    3  ( -1.441019,  1.511220,  1.837031 )     3.74879125
  Sum of centres and spreads ( -4.426655,  4.428017,  4.423485 )    11.19333642
 
     36    -0.283E-03     0.0088270319       11.1933380263       0.15  <-- CONV
        O_D=      0.0248470 O_OD=      0.4952787 O_TOT=     11.1933380 <-- SPRD
 Delta: O_D=  0.7808856E-04 O_OD= -0.3609597E-03 O_TOT= -0.2828711E-03 <-- DLTA
 ------------------------------------------------------------------------------
 Cycle:     37
  WF centre and spread    1  ( -1.236008,  1.209590,  1.258133 )     3.70962360
  WF centre and spread    2  ( -1.749638,  1.707200,  1.328328 )     3.73479856
  WF centre and spread    3  ( -1.441009,  1.511229,  1.837024 )     3.74866729
  Sum of centres and spreads ( -4.426656,  4.428019,  4.423486 )    11.19308945
 
     37    -0.247E-03     0.0120169572       11.1930910517       0.16  <-- CONV
        O_D=      0.0247539 O_OD=      0.4951249 O_TOT=     11.1930911 <-- SPRD
 Delta: O_D= -0.9312741E-04 O_OD= -0.1538472E-03 O_TOT= -0.2469746E-03 <-- DLTA
 ------------------------------------------------------------------------------
 Cycle:     38
  WF centre and spread    1  ( -1.235999,  1.209544,  1.258303 )     3.70966165
  WF centre and spread    2  ( -1.749680,  1.707224,  1.328178 )     3.73470238
  WF centre and spread    3  ( -1.440981,  1.511255,  1.837007 )     3.74849588
  Sum of centres and spreads ( -4.426659,  4.428023,  4.423489 )    11.19285991
 
     38    -0.230E-03     0.0082000453       11.1928615146       0.16  <-- CONV
        O_D=      0.0247328 O_OD=      0.4949165 O_TOT=     11.1928615 <-- SPRD
 Delta: O_D= -0.2110429E-04 O_OD= -0.2084328E-03 O_TOT= -0.2295371E-03 <-- DLTA
 ------------------------------------------------------------------------------
 Cycle:     39
  WF centre and spread    1  ( -1.235983,  1.209478,  1.258534 )     3.70974123
  WF centre and spread    2  ( -1.749741,  1.707257,  1.327973 )     3.73459989
  WF centre and spread    3  ( -1.440943,  1.511289,  1.836988 )     3.74833672
  Sum of centres and spreads ( -4.426667,  4.428023,  4.423495 )    11.19267784
 
     39    -0.182E-03     0.0079198084       11.1926794459       0.16  <-- CONV
        O_D=      0.0247017 O_OD=      0.4947654 O_TOT=     11.1926794 <-- SPRD
 Delta: O_D= -0.3105241E-04 O_OD= -0.1510163E-03 O_TOT= -0.1820688E-03 <-- DLTA
 ------------------------------------------------------------------------------
 Cycle:     40
  WF centre and spread    1  ( -1.235962,  1.209404,  1.258766 )     3.70981640
  WF centre and spread    2  ( -1.749809,  1.707292,  1.327763 )     3.73450065
  WF centre and spread    3  ( -1.440905,  1.511327,  1.836974 )     3.74824641
  Sum of centres and spreads ( -4.426676,  4.428023,  4.423503 )    11.19256346
 
     40    -0.114E-03     0.0065003903       11.1925650667       0.16  <-- CONV
        O_D=      0.0246950 O_OD=      0.4946578 O_TOT=     11.1925651 <-- SPRD
 Delta: O_D= -0.6740083E-05 O_OD= -0.1076391E-03 O_TOT= -0.1143792E-03 <-- DLTA
 ------------------------------------------------------------------------------
 Cycle:     41
  WF centre and spread    1  ( -1.235928,  1.209301,  1.259060 )     3.70989336
  WF centre and spread    2  ( -1.749904,  1.707341,  1.327485 )     3.73436705
  WF centre and spread    3  ( -1.440852,  1.511382,  1.836963 )     3.74820880
  Sum of centres and spreads ( -4.426685,  4.428024,  4.423508 )    11.19246921
 
     41    -0.943E-04     0.0052874683       11.1924708159       0.17  <-- CONV
        O_D=      0.0247005 O_OD=      0.4945581 O_TOT=     11.1924708 <-- SPRD
 Delta: O_D=  0.5486268E-05 O_OD= -0.9973706E-04 O_TOT= -0.9425079E-04 <-- DLTA
 ------------------------------------------------------------------------------
 Cycle:     42
  WF centre and spread    1  ( -1.235866,  1.209126,  1.259535 )     3.70999757
  WF centre and spread    2  ( -1.750067,  1.707426,  1.327020 )     3.73413354
  WF centre and spread    3  ( -1.440759,  1.511481,  1.836952 )     3.74822016
  Sum of centres and spreads ( -4.426692,  4.428033,  4.423507 )    11.19235127
 
     42    -0.118E-03     0.0057046215       11.1923528746       0.17  <-- CONV
        O_D=      0.0247371 O_OD=      0.4944035 O_TOT=     11.1923529 <-- SPRD
 Delta: O_D=  0.3660909E-04 O_OD= -0.1545504E-03 O_TOT= -0.1179413E-03 <-- DLTA
 ------------------------------------------------------------------------------
 Cycle:     43
  WF centre and spread    1  ( -1.235856,  1.209103,  1.259583 )     3.70996835
  WF centre and spread    2  ( -1.750089,  1.707438,  1.326965 )     3.73406632
  WF centre and spread    3  ( -1.440746,  1.511496,  1.836954 )     3.74820854
  Sum of centres and spreads ( -4.426690,  4.428037,  4.423502 )    11.19224321
 
     43    -0.108E-03     0.0079785383       11.1922448102       0.17  <-- CONV
        O_D=      0.0246939 O_OD=      0.4943386 O_TOT=     11.1922448 <-- SPRD
 Delta: O_D= -0.4312009E-04 O_OD= -0.6494430E-04 O_TOT= -0.1080644E-03 <-- DLTA
 ------------------------------------------------------------------------------
 Cycle:     44
  WF centre and spread    1  ( -1.235830,  1.209046,  1.259706 )     3.70995376
  WF centre and spread    2  ( -1.750141,  1.707467,  1.326828 )     3.73395945
  WF centre and spread    3  ( -1.440714,  1.511532,  1.836958 )     3.74824282
  Sum of centres and spreads ( -4.426685,  4.428045,  4.423492 )    11.19215603
 
     44    -0.872E-04     0.0054562212       11.1921576347       0.18  <-- CONV
        O_D=      0.0246814 O_OD=      0.4942639 O_TOT=     11.1921576 <-- SPRD
 Delta: O_D= -0.1252240E-04 O_OD= -0.7465308E-04 O_TOT= -0.8717547E-04 <-- DLTA
 ------------------------------------------------------------------------------
 Cycle:     45
  WF centre and spread    1  ( -1.235781,  1.208927,  1.259981 )     3.70995848
  WF centre and spread    2  ( -1.750252,  1.707526,  1.326534 )     3.73376788
  WF centre and spread    3  ( -1.440649,  1.511606,  1.836964 )     3.74832151
  Sum of centres and spreads ( -4.426681,  4.428058,  4.423478 )    11.19204787
 
     45    -0.108E-03     0.0051555159       11.1920494692       0.18  <-- CONV
        O_D=      0.0246773 O_OD=      0.4941599 O_TOT=     11.1920495 <-- SPRD
 Delta: O_D= -0.4163018E-05 O_OD= -0.1040025E-03 O_TOT= -0.1081655E-03 <-- DLTA
 ------------------------------------------------------------------------------
 Cycle:     46
  WF centre and spread    1  ( -1.235699,  1.208711,  1.260507 )     3.71000598
  WF centre and spread    2  ( -1.750449,  1.707629,  1.325991 )     3.73344258
  WF centre and spread    3  ( -1.440535,  1.511733,  1.836966 )     3.74844225
  Sum of centres and spreads ( -4.426683,  4.428073,  4.423465 )    11.19189081
 
     46    -0.157E-03     0.0061932348       11.1918924132       0.18  <-- CONV
        O_D=      0.0246923 O_OD=      0.4939878 O_TOT=     11.1918924 <-- SPRD
 Delta: O_D=  0.1507643E-04 O_OD= -0.1721325E-03 O_TOT= -0.1570560E-03 <-- DLTA
 ------------------------------------------------------------------------------
 Cycle:     47
  WF centre and spread    1  ( -1.235596,  1.208412,  1.261286 )     3.71012480
  WF centre and spread    2  ( -1.750721,  1.707767,  1.325212 )     3.73300705
  WF centre and spread    3  ( -1.440377,  1.511908,  1.836959 )     3.74856225
  Sum of centres and spreads ( -4.426694,  4.428087,  4.423457 )    11.19169409
 
     47    -0.197E-03     0.0072762244       11.1916956981       0.18  <-- CONV
        O_D=      0.0246984 O_OD=      0.4937850 O_TOT=     11.1916957 <-- SPRD
 Delta: O_D=  0.6093881E-05 O_OD= -0.2028090E-03 O_TOT= -0.1967152E-03 <-- DLTA
 ------------------------------------------------------------------------------
 Cycle:     48
  WF centre and spread    1  ( -1.235493,  1.208073,  1.262222 )     3.71031952
  WF centre and spread    2  ( -1.751026,  1.707920,  1.324294 )     3.73253452
  WF centre and spread    3  ( -1.440191,  1.512110,  1.836939 )     3.74863233
  Sum of centres and spreads ( -4.426710,  4.428103,  4.423455 )    11.19148637
 
     48    -0.208E-03     0.0075959275       11.1914879766       0.19  <-- CONV
        O_D=      0.0247600 O_OD=      0.4935157 O_TOT=     11.1914880 <-- SPRD
 Delta: O_D=  0.6153053E-04 O_OD= -0.2692520E-03 O_TOT= -0.2077215E-03 <-- DLTA
 ------------------------------------------------------------------------------
 Cycle:     49
  WF centre and spread    1  ( -1.235493,  1.208060,  1.262273 )     3.71029407
  WF centre and spread    2  ( -1.751037,  1.707926,  1.324248 )     3.73246824
  WF centre and spread    3  ( -1.440181,  1.512119,  1.836934 )     3.74853550
  Sum of centres and spreads ( -4.426710,  4.428105,  4.423455 )    11.19129781
 
     49    -0.189E-03     0.0105471106       11.1912994121       0.19  <-- CONV
        O_D=      0.0246875 O_OD=      0.4933996 O_TOT=     11.1912994 <-- SPRD
 Delta: O_D= -0.7245186E-04 O_OD= -0.1161127E-03 O_TOT= -0.1885645E-03 <-- DLTA
 ------------------------------------------------------------------------------
 Cycle:     50
  WF centre and spread    1  ( -1.235491,  1.208019,  1.262424 )     3.71033350
  WF centre and spread    2  ( -1.751071,  1.707943,  1.324113 )     3.73239120
  WF centre and spread    3  ( -1.440150,  1.512147,  1.836920 )     3.74839633
  Sum of centres and spreads ( -4.426712,  4.428109,  4.423456 )    11.19112103
 
     50    -0.177E-03     0.0071792558       11.1911226382       0.19  <-- CONV
        O_D=      0.0246698 O_OD=      0.4932406 O_TOT=     11.1911226 <-- SPRD
 Delta: O_D= -0.1773764E-04 O_OD= -0.1590362E-03 O_TOT= -0.1767738E-03 <-- DLTA
 ------------------------------------------------------------------------------
 Cycle:     51
  WF centre and spread    1  ( -1.235487,  1.207959,  1.262633 )     3.71040989
  WF centre and spread    2  ( -1.751122,  1.707967,  1.323925 )     3.73230541
  WF centre and spread    3  ( -1.440109,  1.512185,  1.836903 )     3.74826164
  Sum of centres and spreads ( -4.426718,  4.428111,  4.423461 )    11.19097693
 
     51    -0.144E-03     0.0069883996       11.1909785383       0.19  <-- CONV
        O_D=      0.0246436 O_OD=      0.4931226 O_TOT=     11.1909785 <-- SPRD
 Delta: O_D= -0.2612390E-04 O_OD= -0.1179761E-03 O_TOT= -0.1441000E-03 <-- DLTA
 ------------------------------------------------------------------------------
 Cycle:     52
  WF centre and spread    1  ( -1.235479,  1.207893,  1.262845 )     3.71048142
  WF centre and spread    2  ( -1.751179,  1.707993,  1.323733 )     3.73221964
  WF centre and spread    3  ( -1.440068,  1.512225,  1.836890 )     3.74818364
  Sum of centres and spreads ( -4.426726,  4.428111,  4.423468 )    11.19088470
 
     52    -0.922E-04     0.0058128858       11.1908863025       0.20  <-- CONV
        O_D=      0.0246400 O_OD=      0.4930340 O_TOT=     11.1908863 <-- SPRD
 Delta: O_D= -0.3653081E-05 O_OD= -0.8858269E-04 O_TOT= -0.9223577E-04 <-- DLTA
 ------------------------------------------------------------------------------
 Cycle:     53
  WF centre and spread    1  ( -1.235464,  1.207806,  1.263102 )     3.71055128
  WF centre and spread    2  ( -1.751254,  1.708028,  1.323490 )     3.73210749
  WF centre and spread    3  ( -1.440015,  1.512280,  1.836880 )     3.74815313
  Sum of centres and spreads ( -4.426733,  4.428113,  4.423473 )    11.19081190
 
     53    -0.728E-04     0.0047024547       11.1908135040       0.20  <-- CONV
        O_D=      0.0246453 O_OD=      0.4929559 O_TOT=     11.1908135 <-- SPRD
 Delta: O_D=  0.5309013E-05 O_OD= -0.7810751E-04 O_TOT= -0.7279850E-04 <-- DLTA
 ------------------------------------------------------------------------------
 Cycle:     54
  WF centre and spread    1  ( -1.235434,  1.207661,  1.263507 )     3.71064419
  WF centre and spread    2  ( -1.751380,  1.708087,  1.323095 )     3.73191520
  WF centre and spread    3  ( -1.439926,  1.512374,  1.836871 )     3.74816436
  Sum of centres and spreads ( -4.426740,  4.428121,  4.423472 )    11.19072375
 
     54    -0.881E-04     0.0049565624       11.1907253585       0.20  <-- CONV
        O_D=      0.0246736 O_OD=      0.4928394 O_TOT=     11.1907254 <-- SPRD
 Delta: O_D=  0.2831959E-04 O_OD= -0.1164651E-03 O_TOT= -0.8814547E-04 <-- DLTA
 ------------------------------------------------------------------------------
 Cycle:     55
  WF centre and spread    1  ( -1.235427,  1.207641,  1.263549 )     3.71062293
  WF centre and spread    2  ( -1.751397,  1.708095,  1.323047 )     3.73186104
  WF centre and spread    3  ( -1.439914,  1.512387,  1.836872 )     3.74815722
  Sum of centres and spreads ( -4.426738,  4.428124,  4.423468 )    11.19064119
 
     55    -0.826E-04     0.0070080392       11.1906427932       0.20  <-- CONV
        O_D=      0.0246404 O_OD=      0.4927901 O_TOT=     11.1906428 <-- SPRD
 Delta: O_D= -0.3323676E-04 O_OD= -0.4932862E-04 O_TOT= -0.8256537E-04 <-- DLTA
 ------------------------------------------------------------------------------
 Cycle:     56
  WF centre and spread    1  ( -1.235411,  1.207592,  1.263660 )     3.71061494
  WF centre and spread    2  ( -1.751439,  1.708117,  1.322925 )     3.73177109
  WF centre and spread    3  ( -1.439884,  1.512422,  1.836875 )     3.74818738
  Sum of centres and spreads ( -4.426734,  4.428131,  4.423460 )    11.19057341
 
     56    -0.678E-04     0.0047862209       11.1905750098       0.21  <-- CONV
        O_D=      0.0246304 O_OD=      0.4927323 O_TOT=     11.1905750 <-- SPRD
 Delta: O_D= -0.9950790E-05 O_OD= -0.5783255E-04 O_TOT= -0.6778334E-04 <-- DLTA
 ------------------------------------------------------------------------------
 Cycle:     57
  WF centre and spread    1  ( -1.235382,  1.207488,  1.263912 )     3.71062754
  WF centre and spread    2  ( -1.751530,  1.708161,  1.322659 )     3.73160498
  WF centre and spread    3  ( -1.439820,  1.512493,  1.836878 )     3.74825466
  Sum of centres and spreads ( -4.426731,  4.428142,  4.423448 )    11.19048718
 
     57    -0.862E-04     0.0045604929       11.1904887860       0.21  <-- CONV
        O_D=      0.0246254 O_OD=      0.4926510 O_TOT=     11.1904888 <-- SPRD
 Delta: O_D= -0.4988209E-05 O_OD= -0.8123559E-04 O_TOT= -0.8622380E-04 <-- DLTA
 ------------------------------------------------------------------------------
 Cycle:     58
  WF centre and spread    1  ( -1.235336,  1.207298,  1.264396 )     3.71068413
  WF centre and spread    2  ( -1.751693,  1.708238,  1.322165 )     3.73132017
  WF centre and spread    3  ( -1.439705,  1.512620,  1.836877 )     3.74835615
  Sum of centres and spreads ( -4.426734,  4.428155,  4.423438 )    11.19036046
 
     58    -0.127E-03     0.0055422334       11.1903620619       0.21  <-- CONV
        O_D=      0.0246382 O_OD=      0.4925115 O_TOT=     11.1903621 <-- SPRD
 Delta: O_D=  0.1277469E-04 O_OD= -0.1394989E-03 O_TOT= -0.1267242E-03 <-- DLTA
 ------------------------------------------------------------------------------
 Cycle:     59
  WF centre and spread    1  ( -1.235286,  1.207043,  1.265082 )     3.71080436
  WF centre and spread    2  ( -1.751909,  1.708336,  1.321483 )     3.73095425
  WF centre and spread    3  ( -1.439549,  1.512789,  1.836868 )     3.74844924
  Sum of centres and spreads ( -4.426744,  4.428168,  4.423433 )    11.19020785
 
     59    -0.153E-03     0.0064918437       11.1902094549       0.21  <-- CONV
        O_D=      0.0246455 O_OD=      0.4923517 O_TOT=     11.1902095 <-- SPRD
 Delta: O_D=  0.7260915E-05 O_OD= -0.1598679E-03 O_TOT= -0.1526070E-03 <-- DLTA
 ------------------------------------------------------------------------------
 Cycle:     60
  WF centre and spread    1  ( -1.235243,  1.206762,  1.265882 )     3.71098801
  WF centre and spread    2  ( -1.752145,  1.708440,  1.320702 )     3.73056951
  WF centre and spread    3  ( -1.439370,  1.512980,  1.836849 )     3.74849441
  Sum of centres and spreads ( -4.426757,  4.428182,  4.423432 )    11.19005193
 
     60    -0.156E-03     0.0066161978       11.1900535376       0.22  <-- CONV
        O_D=      0.0246942 O_OD=      0.4921470 O_TOT=     11.1900535 <-- SPRD
 Delta: O_D=  0.4874233E-04 O_OD= -0.2046596E-03 O_TOT= -0.1559173E-03 <-- DLTA
 ------------------------------------------------------------------------------
 Cycle:     61
  WF centre and spread    1  ( -1.235245,  1.206750,  1.265926 )     3.71097138
  WF centre and spread    2  ( -1.752154,  1.708444,  1.320661 )     3.73051745
  WF centre and spread    3  ( -1.439359,  1.512990,  1.836845 )     3.74841825
  Sum of centres and spreads ( -4.426757,  4.428184,  4.423432 )    11.18990707
 
     61    -0.145E-03     0.0092700723       11.1899086788       0.22  <-- CONV
        O_D=      0.0246371 O_OD=      0.4920593 O_TOT=     11.1899087 <-- SPRD
 Delta: O_D= -0.5711464E-04 O_OD= -0.8774420E-04 O_TOT= -0.1448588E-03 <-- DLTA
 ------------------------------------------------------------------------------
 Cycle:     62
  WF centre and spread    1  ( -1.235249,  1.206712,  1.266060 )     3.71101106
  WF centre and spread    2  ( -1.752183,  1.708456,  1.320540 )     3.73045399
  WF centre and spread    3  ( -1.439326,  1.513020,  1.836832 )     3.74830425
  Sum of centres and spreads ( -4.426758,  4.428188,  4.423432 )    11.18976930
 
     62    -0.138E-03     0.0063195269       11.1897709009       0.22  <-- CONV
        O_D=      0.0246213 O_OD=      0.4919373 O_TOT=     11.1897709 <-- SPRD
 Delta: O_D= -0.1577419E-04 O_OD= -0.1220037E-03 O_TOT= -0.1377779E-03 <-- DLTA
 ------------------------------------------------------------------------------
 Cycle:     63
  WF centre and spread    1  ( -1.235254,  1.206658,  1.266248 )     3.71108291
  WF centre and spread    2  ( -1.752225,  1.708473,  1.320371 )     3.73038124
  WF centre and spread    3  ( -1.439283,  1.513060,  1.836817 )     3.74819160
  Sum of centres and spreads ( -4.426763,  4.428190,  4.423436 )    11.18965575
 
     63    -0.114E-03     0.0061817461       11.1896573546       0.22  <-- CONV
        O_D=      0.0245995 O_OD=      0.4918455 O_TOT=     11.1896574 <-- SPRD
 Delta: O_D= -0.2182336E-04 O_OD= -0.9172292E-04 O_TOT= -0.1135463E-03 <-- DLTA
 ------------------------------------------------------------------------------
 Cycle:     64
  WF centre and spread    1  ( -1.235257,  1.206599,  1.266439 )     3.71114969
  WF centre and spread    2  ( -1.752272,  1.708491,  1.320197 )     3.73030706
  WF centre and spread    3  ( -1.439240,  1.513102,  1.836806 )     3.74812573
  Sum of centres and spreads ( -4.426769,  4.428191,  4.423442 )    11.18958248
 
     64    -0.733E-04     0.0051631501       11.1895840834       0.23  <-- CONV
        O_D=      0.0245979 O_OD=      0.4917739 O_TOT=     11.1895841 <-- SPRD
 Delta: O_D= -0.1658783E-05 O_OD= -0.7161240E-04 O_TOT= -0.7327119E-04 <-- DLTA
 ------------------------------------------------------------------------------
 Cycle:     65
  WF centre and spread    1  ( -1.235256,  1.206523,  1.266666 )     3.71121397
  WF centre and spread    2  ( -1.752332,  1.708514,  1.319984 )     3.73021132
  WF centre and spread    3  ( -1.439187,  1.513156,  1.836797 )     3.74810043
  Sum of centres and spreads ( -4.426775,  4.428194,  4.423446 )    11.18952573
 
     65    -0.568E-04     0.0041731910       11.1895273322       0.23  <-- CONV
        O_D=      0.0246028 O_OD=      0.4917122 O_TOT=     11.1895273 <-- SPRD
 Delta: O_D=  0.4960315E-05 O_OD= -0.6171157E-04 O_TOT= -0.5675125E-04 <-- DLTA
 ------------------------------------------------------------------------------
 Cycle:     66
  WF centre and spread    1  ( -1.235249,  1.206400,  1.267015 )     3.71129831
  WF centre and spread    2  ( -1.752431,  1.708554,  1.319643 )     3.73005039
  WF centre and spread    3  ( -1.439100,  1.513246,  1.836788 )     3.74811006
  Sum of centres and spreads ( -4.426780,  4.428200,  4.423446 )    11.18945876
 
     66    -0.670E-04     0.0043446032       11.1894603652       0.23  <-- CONV
        O_D=      0.0246250 O_OD=      0.4916231 O_TOT=     11.1894604 <-- SPRD
 Delta: O_D=  0.2215538E-04 O_OD= -0.8912236E-04 O_TOT= -0.6696698E-04 <-- DLTA
 ------------------------------------------------------------------------------
 Cycle:     67
  WF centre and spread    1  ( -1.235245,  1.206383,  1.267053 )     3.71128287
  WF centre and spread    2  ( -1.752445,  1.708560,  1.319601 )     3.73000649
  WF centre and spread    3  ( -1.439089,  1.513259,  1.836789 )     3.74810588
  Sum of centres and spreads ( -4.426779,  4.428203,  4.423443 )    11.18939523
 
     67    -0.635E-04     0.0061634508       11.1893968352       0.23  <-- CONV
        O_D=      0.0245989 O_OD=      0.4915856 O_TOT=     11.1893968 <-- SPRD
 Delta: O_D= -0.2605691E-04 O_OD= -0.3747313E-04 O_TOT= -0.6353004E-04 <-- DLTA
 ------------------------------------------------------------------------------
 Cycle:     68
  WF centre and spread    1  ( -1.235237,  1.206341,  1.267152 )     3.71127952
  WF centre and spread    2  ( -1.752480,  1.708576,  1.319493 )     3.72993057
  WF centre and spread    3  ( -1.439059,  1.513292,  1.836791 )     3.74813201
  Sum of centres and spreads ( -4.426776,  4.428209,  4.423436 )    11.18934211
 
     68    -0.531E-04     0.0042175279       11.1893437143       0.24  <-- CONV
        O_D=      0.0245906 O_OD=      0.4915408 O_TOT=     11.1893437 <-- SPRD
 Delta: O_D= -0.8342679E-05 O_OD= -0.4477822E-04 O_TOT= -0.5312090E-04 <-- DLTA
 ------------------------------------------------------------------------------
 Cycle:     69
  WF centre and spread    1  ( -1.235224,  1.206249,  1.267379 )     3.71129714
  WF centre and spread    2  ( -1.752554,  1.708608,  1.319255 )     3.72978835
  WF centre and spread    3  ( -1.438996,  1.513361,  1.836792 )     3.74818842
  Sum of centres and spreads ( -4.426774,  4.428218,  4.423427 )    11.18927391
 
     69    -0.682E-04     0.0040407068       11.1892755166       0.24  <-- CONV
        O_D=      0.0245856 O_OD=      0.4914776 O_TOT=     11.1892755 <-- SPRD
 Delta: O_D= -0.4945394E-05 O_OD= -0.6325227E-04 O_TOT= -0.6819767E-04 <-- DLTA
 ------------------------------------------------------------------------------
 Cycle:     70
  WF centre and spread    1  ( -1.235209,  1.206081,  1.267817 )     3.71135817
  WF centre and spread    2  ( -1.752688,  1.708662,  1.318813 )     3.72954319
  WF centre and spread    3  ( -1.438880,  1.513487,  1.836789 )     3.74827186
  Sum of centres and spreads ( -4.426777,  4.428230,  4.423419 )    11.18917323
 
     70    -0.101E-03     0.0049270580       11.1891748328       0.24  <-- CONV
        O_D=      0.0245967 O_OD=      0.4913658 O_TOT=     11.1891748 <-- SPRD
 Delta: O_D=  0.1108700E-04 O_OD= -0.1117708E-03 O_TOT= -0.1006838E-03 <-- DLTA
 ------------------------------------------------------------------------------
 Cycle:     71
  WF centre and spread    1  ( -1.235198,  1.205860,  1.268424 )     3.71147656
  WF centre and spread    2  ( -1.752862,  1.708729,  1.318214 )     3.72923349
  WF centre and spread    3  ( -1.438725,  1.513652,  1.836778 )     3.74834401
  Sum of centres and spreads ( -4.426786,  4.428241,  4.423416 )    11.18905406
 
     71    -0.119E-03     0.0057709582       11.1890556672       0.24  <-- CONV
        O_D=      0.0246042 O_OD=      0.4912391 O_TOT=     11.1890557 <-- SPRD
 Delta: O_D=  0.7527891E-05 O_OD= -0.1266935E-03 O_TOT= -0.1191656E-03 <-- DLTA
 ------------------------------------------------------------------------------
 Cycle:     72
  WF centre and spread    1  ( -1.235199,  1.205619,  1.269116 )     3.71164790
  WF centre and spread    2  ( -1.753049,  1.708798,  1.317540 )     3.72891446
  WF centre and spread    3  ( -1.438549,  1.513838,  1.836759 )     3.74837279
  Sum of centres and spreads ( -4.426797,  4.428254,  4.423415 )    11.18893516
 
     72    -0.119E-03     0.0058085517       11.1889367608       0.24  <-- CONV
        O_D=      0.0246429 O_OD=      0.4910816 O_TOT=     11.1889368 <-- SPRD
 Delta: O_D=  0.3867244E-04 O_OD= -0.1575789E-03 O_TOT= -0.1189064E-03 <-- DLTA
 ------------------------------------------------------------------------------
 Cycle:     73
  WF centre and spread    1  ( -1.235202,  1.205607,  1.269155 )     3.71163766
  WF centre and spread    2  ( -1.753057,  1.708800,  1.317504 )     3.72887317
  WF centre and spread    3  ( -1.438538,  1.513848,  1.836756 )     3.74831246
  Sum of centres and spreads ( -4.426797,  4.428256,  4.423415 )    11.18882329
 
     73    -0.112E-03     0.0081586204       11.1888248901       0.25  <-- CONV
        O_D=      0.0245976 O_OD=      0.4910150 O_TOT=     11.1888249 <-- SPRD
 Delta: O_D= -0.4532463E-04 O_OD= -0.6654607E-04 O_TOT= -0.1118707E-03 <-- DLTA
 ------------------------------------------------------------------------------
 Cycle:     74
  WF centre and spread    1  ( -1.235212,  1.205573,  1.269274 )     3.71167662
  WF centre and spread    2  ( -1.753081,  1.708808,  1.317396 )     3.72882017
  WF centre and spread    3  ( -1.438504,  1.513879,  1.836745 )     3.74821852
  Sum of centres and spreads ( -4.426797,  4.428260,  4.423415 )    11.18871531
 
     74    -0.108E-03     0.0055779548       11.1887169130       0.25  <-- CONV
        O_D=      0.0245835 O_OD=      0.4909212 O_TOT=     11.1887169 <-- SPRD
 Delta: O_D= -0.1412458E-04 O_OD= -0.9385243E-04 O_TOT= -0.1079770E-03 <-- DLTA
 ------------------------------------------------------------------------------
 Cycle:     75
  WF centre and spread    1  ( -1.235224,  1.205523,  1.269442 )     3.71174323
  WF centre and spread    2  ( -1.753117,  1.708819,  1.317245 )     3.72875814
  WF centre and spread    3  ( -1.438460,  1.513921,  1.836732 )     3.74812467
  Sum of centres and spreads ( -4.426801,  4.428263,  4.423418 )    11.18862605
 
     75    -0.893E-04     0.0054742702       11.1886276501       0.25  <-- CONV
        O_D=      0.0245655 O_OD=      0.4908499 O_TOT=     11.1886277 <-- SPRD
 Delta: O_D= -0.1798547E-04 O_OD= -0.7127746E-04 O_TOT= -0.8926294E-04 <-- DLTA
 ------------------------------------------------------------------------------
 Cycle:     76
  WF centre and spread    1  ( -1.235236,  1.205470,  1.269612 )     3.71180468
  WF centre and spread    2  ( -1.753155,  1.708830,  1.317090 )     3.72869406
  WF centre and spread    3  ( -1.438416,  1.513964,  1.836721 )     3.74806950
  Sum of centres and spreads ( -4.426806,  4.428264,  4.423423 )    11.18856824
 
     76    -0.578E-04     0.0045749371       11.1885698431       0.25  <-- CONV
        O_D=      0.0245651 O_OD=      0.4907925 O_TOT=     11.1885698 <-- SPRD
 Delta: O_D= -0.3867620E-06 O_OD= -0.5742028E-04 O_TOT= -0.5780704E-04 <-- DLTA
 ------------------------------------------------------------------------------
 Cycle:     77
  WF centre and spread    1  ( -1.235245,  1.205403,  1.269812 )     3.71186381
  WF centre and spread    2  ( -1.753204,  1.708845,  1.316901 )     3.72861180
  WF centre and spread    3  ( -1.438362,  1.514018,  1.836713 )     3.74804818
  Sum of centres and spreads ( -4.426811,  4.428266,  4.423426 )    11.18852379
 
     77    -0.445E-04     0.0037016316       11.1885253925       0.26  <-- CONV
        O_D=      0.0245696 O_OD=      0.4907435 O_TOT=     11.1885254 <-- SPRD
 Delta: O_D=  0.4498038E-05 O_OD= -0.4894862E-04 O_TOT= -0.4445058E-04 <-- DLTA
 ------------------------------------------------------------------------------
 Cycle:     78
  WF centre and spread    1  ( -1.235255,  1.205297,  1.270117 )     3.71194069
  WF centre and spread    2  ( -1.753283,  1.708870,  1.316606 )     3.72847599
  WF centre and spread    3  ( -1.438277,  1.514106,  1.836704 )     3.74805569
  Sum of centres and spreads ( -4.426815,  4.428273,  4.423427 )    11.18847236
 
     78    -0.514E-04     0.0038266761       11.1884739675       0.26  <-- CONV
        O_D=      0.0245871 O_OD=      0.4906745 O_TOT=     11.1884740 <-- SPRD
 Delta: O_D=  0.1753811E-04 O_OD= -0.6896309E-04 O_TOT= -0.5142498E-04 <-- DLTA
 ------------------------------------------------------------------------------
 Cycle:     79
  WF centre and spread    1  ( -1.235254,  1.205282,  1.270150 )     3.71192962
  WF centre and spread    2  ( -1.753295,  1.708874,  1.316570 )     3.72844023
  WF centre and spread    3  ( -1.438265,  1.514118,  1.836705 )     3.74805334
  Sum of centres and spreads ( -4.426814,  4.428275,  4.423424 )    11.18842319
 
     79    -0.492E-04     0.0054298115       11.1884247955       0.26  <-- CONV
        O_D=      0.0245665 O_OD=      0.4906460 O_TOT=     11.1884248 <-- SPRD
 Delta: O_D= -0.2063786E-04 O_OD= -0.2853418E-04 O_TOT= -0.4917203E-04 <-- DLTA
 ------------------------------------------------------------------------------
 Cycle:     80
  WF centre and spread    1  ( -1.235252,  1.205244,  1.270239 )     3.71192970
  WF centre and spread    2  ( -1.753324,  1.708885,  1.316473 )     3.72837617
  WF centre and spread    3  ( -1.438236,  1.514150,  1.836705 )     3.74807555
  Sum of centres and spreads ( -4.426812,  4.428280,  4.423418 )    11.18838141
 
     80    -0.418E-04     0.0037256512       11.1883830180       0.26  <-- CONV
        O_D=      0.0245593 O_OD=      0.4906114 O_TOT=     11.1883830 <-- SPRD
 Delta: O_D= -0.7147870E-05 O_OD= -0.3462960E-04 O_TOT= -0.4177747E-04 <-- DLTA
 ------------------------------------------------------------------------------
 Cycle:     81
  WF centre and spread    1  ( -1.235253,  1.205163,  1.270443 )     3.71195042
  WF centre and spread    2  ( -1.753385,  1.708907,  1.316263 )     3.72825516
  WF centre and spread    3  ( -1.438173,  1.514218,  1.836705 )     3.74812207
  Sum of centres and spreads ( -4.426811,  4.428288,  4.423411 )    11.18832765
 
     81    -0.538E-04     0.0035835227       11.1883292553       0.26  <-- CONV
        O_D=      0.0245548 O_OD=      0.4905622 O_TOT=     11.1883293 <-- SPRD
 Delta: O_D= -0.4549329E-05 O_OD= -0.4921334E-04 O_TOT= -0.5376267E-04 <-- DLTA
 ------------------------------------------------------------------------------
 Cycle:     82
  WF centre and spread    1  ( -1.235261,  1.205014,  1.270834 )     3.71201279
  WF centre and spread    2  ( -1.753495,  1.708942,  1.315871 )     3.72804568
  WF centre and spread    3  ( -1.438057,  1.514342,  1.836700 )     3.74818972
  Sum of centres and spreads ( -4.426814,  4.428298,  4.423405 )    11.18824818
 
     82    -0.795E-04     0.0043704197       11.1882497866       0.27  <-- CONV
        O_D=      0.0245644 O_OD=      0.4904731 O_TOT=     11.1882498 <-- SPRD
 Delta: O_D=  0.9589880E-05 O_OD= -0.8905859E-04 O_TOT= -0.7946871E-04 <-- DLTA
 ------------------------------------------------------------------------------
 Cycle:     83
  WF centre and spread    1  ( -1.235281,  1.204818,  1.271372 )     3.71212685
  WF centre and spread    2  ( -1.753639,  1.708985,  1.315343 )     3.72778244
  WF centre and spread    3  ( -1.437901,  1.514506,  1.836688 )     3.74824550
  Sum of centres and spreads ( -4.426821,  4.428308,  4.423403 )    11.18815479
 
     83    -0.934E-04     0.0051235066       11.1881563987       0.27  <-- CONV
        O_D=      0.0245716 O_OD=      0.4903725 O_TOT=     11.1881564 <-- SPRD
 Delta: O_D=  0.7198210E-05 O_OD= -0.1005861E-03 O_TOT= -0.9338793E-04 <-- DLTA
 ------------------------------------------------------------------------------
 Cycle:     84
  WF centre and spread    1  ( -1.235314,  1.204606,  1.271975 )     3.71228516
  WF centre and spread    2  ( -1.753790,  1.709027,  1.314758 )     3.72751473
  WF centre and spread    3  ( -1.437726,  1.514687,  1.836670 )     3.74826327
  Sum of centres and spreads ( -4.426830,  4.428320,  4.423403 )    11.18806317
 
     84    -0.916E-04     0.0051208154       11.1880647749       0.27  <-- CONV
        O_D=      0.0246024 O_OD=      0.4902501 O_TOT=     11.1880648 <-- SPRD
 Delta: O_D=  0.3079927E-04 O_OD= -0.1224230E-03 O_TOT= -0.9162373E-04 <-- DLTA
 ------------------------------------------------------------------------------
 Cycle:     85
  WF centre and spread    1  ( -1.235318,  1.204595,  1.272010 )     3.71227948
  WF centre and spread    2  ( -1.753797,  1.709029,  1.314726 )     3.72748168
  WF centre and spread    3  ( -1.437715,  1.514698,  1.836667 )     3.74821518
  Sum of centres and spreads ( -4.426830,  4.428322,  4.423403 )    11.18797634
 
     85    -0.868E-04     0.0071937836       11.1879779426       0.27  <-- CONV
        O_D=      0.0245662 O_OD=      0.4901994 O_TOT=     11.1879779 <-- SPRD
 Delta: O_D= -0.3613754E-04 O_OD= -0.5069478E-04 O_TOT= -0.8683232E-04 <-- DLTA
 ------------------------------------------------------------------------------
 Cycle:     86
  WF centre and spread    1  ( -1.235332,  1.204563,  1.272116 )     3.71231695
  WF centre and spread    2  ( -1.753818,  1.709033,  1.314629 )     3.72743704
  WF centre and spread    3  ( -1.437681,  1.514730,  1.836657 )     3.74813746
  Sum of centres and spreads ( -4.426830,  4.428326,  4.423402 )    11.18789145
 
     86    -0.849E-04     0.0049319704       11.1878930524       0.27  <-- CONV
        O_D=      0.0245537 O_OD=      0.4901270 O_TOT=     11.1878931 <-- SPRD
 Delta: O_D= -0.1250755E-04 O_OD= -0.7238266E-04 O_TOT= -0.8489021E-04 <-- DLTA
 ------------------------------------------------------------------------------
 Cycle:     87
  WF centre and spread    1  ( -1.235350,  1.204517,  1.272264 )     3.71237804
  WF centre and spread    2  ( -1.753847,  1.709039,  1.314495 )     3.72738393
  WF centre and spread    3  ( -1.437635,  1.514773,  1.836646 )     3.74805930
  Sum of centres and spreads ( -4.426833,  4.428329,  4.423405 )    11.18782127
 
     87    -0.702E-04     0.0048528573       11.1878228735       0.28  <-- CONV
        O_D=      0.0245390 O_OD=      0.4900715 O_TOT=     11.1878229 <-- SPRD
 Delta: O_D= -0.1468723E-04 O_OD= -0.5549164E-04 O_TOT= -0.7017887E-04 <-- DLTA
 ------------------------------------------------------------------------------
 Cycle:     88
  WF centre and spread    1  ( -1.235368,  1.204469,  1.272416 )     3.71243404
  WF centre and spread    2  ( -1.753879,  1.709044,  1.314358 )     3.72732857
  WF centre and spread    3  ( -1.437590,  1.514817,  1.836636 )     3.74801314
  Sum of centres and spreads ( -4.426837,  4.428330,  4.423409 )    11.18777575
 
     88    -0.455E-04     0.0040530802       11.1877773554       0.28  <-- CONV
        O_D=      0.0245394 O_OD=      0.4900256 O_TOT=     11.1877774 <-- SPRD
 Delta: O_D=  0.3801888E-06 O_OD= -0.4589837E-04 O_TOT= -0.4551818E-04 <-- DLTA
 ------------------------------------------------------------------------------
 Cycle:     89
  WF centre and spread    1  ( -1.235386,  1.204409,  1.272593 )     3.71248819
  WF centre and spread    2  ( -1.753920,  1.709052,  1.314191 )     3.72725771
  WF centre and spread    3  ( -1.437536,  1.514872,  1.836628 )     3.74799493
  Sum of centres and spreads ( -4.426841,  4.428333,  4.423412 )    11.18774083
 
     89    -0.349E-04     0.0032836433       11.1877424303       0.28  <-- CONV
        O_D=      0.0245434 O_OD=      0.4899867 O_TOT=     11.1877424 <-- SPRD
 Delta: O_D=  0.4022364E-05 O_OD= -0.3894747E-04 O_TOT= -0.3492510E-04 <-- DLTA
 ------------------------------------------------------------------------------
 Cycle:     90
  WF centre and spread    1  ( -1.235409,  1.204315,  1.272860 )     3.71255831
  WF centre and spread    2  ( -1.753985,  1.709066,  1.313935 )     3.72714243
  WF centre and spread    3  ( -1.437451,  1.514958,  1.836619 )     3.74800027
  Sum of centres and spreads ( -4.426845,  4.428338,  4.423413 )    11.18770101
 
     90    -0.398E-04     0.0033801803       11.1877026162       0.28  <-- CONV
        O_D=      0.0245575 O_OD=      0.4899329 O_TOT=     11.1877026 <-- SPRD
 Delta: O_D=  0.1400268E-04 O_OD= -0.5381670E-04 O_TOT= -0.3981402E-04 <-- DLTA
 ------------------------------------------------------------------------------
 Cycle:     91
  WF centre and spread    1  ( -1.235410,  1.204301,  1.272889 )     3.71255056
  WF centre and spread    2  ( -1.753994,  1.709069,  1.313902 )     3.72711318
  WF centre and spread    3  ( -1.437440,  1.514970,  1.836619 )     3.74799901
  Sum of centres and spreads ( -4.426844,  4.428340,  4.423410 )    11.18766275
 
     91    -0.383E-04     0.0047934797       11.1876643506       0.28  <-- CONV
        O_D=      0.0245410 O_OD=      0.4899111 O_TOT=     11.1876644 <-- SPRD
 Delta: O_D= -0.1646193E-04 O_OD= -0.2180368E-04 O_TOT= -0.3826561E-04 <-- DLTA
 ------------------------------------------------------------------------------
 Cycle:     92
  WF centre and spread    1  ( -1.235413,  1.204267,  1.272969 )     3.71255315
  WF centre and spread    2  ( -1.754018,  1.709076,  1.313817 )     3.72705914
  WF centre and spread    3  ( -1.437411,  1.515001,  1.836619 )     3.74801753
  Sum of centres and spreads ( -4.426842,  4.428344,  4.423406 )    11.18762982
 
     92    -0.329E-04     0.0032973656       11.1876314230       0.29  <-- CONV
        O_D=      0.0245348 O_OD=      0.4898843 O_TOT=     11.1876314 <-- SPRD
 Delta: O_D= -0.6161651E-05 O_OD= -0.2676602E-04 O_TOT= -0.3292767E-04 <-- DLTA
 ------------------------------------------------------------------------------
 Cycle:     93
  WF centre and spread    1  ( -1.235424,  1.204194,  1.273150 )     3.71257562
  WF centre and spread    2  ( -1.754070,  1.709089,  1.313631 )     3.72695645
  WF centre and spread    3  ( -1.437348,  1.515068,  1.836618 )     3.74805538
  Sum of centres and spreads ( -4.426841,  4.428351,  4.423400 )    11.18758746
 
     93    -0.424E-04     0.0031804145       11.1875890599       0.29  <-- CONV
        O_D=      0.0245308 O_OD=      0.4898460 O_TOT=     11.1875891 <-- SPRD
 Delta: O_D= -0.4053940E-05 O_OD= -0.3830916E-04 O_TOT= -0.4236310E-04 <-- DLTA
 ------------------------------------------------------------------------------
 Cycle:     94
  WF centre and spread    1  ( -1.235451,  1.204060,  1.273499 )     3.71263734
  WF centre and spread    2  ( -1.754162,  1.709109,  1.313285 )     3.72677787
  WF centre and spread    3  ( -1.437231,  1.515191,  1.836612 )     3.74810958
  Sum of centres and spreads ( -4.426844,  4.428360,  4.423395 )    11.18752479
 
     94    -0.627E-04     0.0038759131       11.1875263983       0.29  <-- CONV
        O_D=      0.0245390 O_OD=      0.4897751 O_TOT=     11.1875264 <-- SPRD
 Delta: O_D=  0.8185180E-05 O_OD= -0.7084673E-04 O_TOT= -0.6266155E-04 <-- DLTA
 ------------------------------------------------------------------------------
 Cycle:     95
  WF centre and spread    1  ( -1.235495,  1.203884,  1.273976 )     3.71274555
  WF centre and spread    2  ( -1.754282,  1.709132,  1.312820 )     3.72655338
  WF centre and spread    3  ( -1.437074,  1.515354,  1.836599 )     3.74815241
  Sum of centres and spreads ( -4.426851,  4.428370,  4.423394 )    11.18745135
 
     95    -0.734E-04     0.0045495993       11.1874529499       0.29  <-- CONV
        O_D=      0.0245456 O_OD=      0.4896951 O_TOT=     11.1874529 <-- SPRD
 Delta: O_D=  0.6615933E-05 O_OD= -0.8006433E-04 O_TOT= -0.7344839E-04 <-- DLTA
 ------------------------------------------------------------------------------
 Cycle:     96
  WF centre and spread    1  ( -1.235552,  1.203694,  1.274505 )     3.71289081
  WF centre and spread    2  ( -1.754407,  1.709154,  1.312310 )     3.72632682
  WF centre and spread    3  ( -1.436899,  1.515533,  1.836580 )     3.74816255
  Sum of centres and spreads ( -4.426858,  4.428381,  4.423395 )    11.18738018
 
     96    -0.712E-04     0.0045277908       11.1873817878       0.29  <-- CONV
        O_D=      0.0245702 O_OD=      0.4895993 O_TOT=     11.1873818 <-- SPRD
 Delta: O_D=  0.2465811E-04 O_OD= -0.9582028E-04 O_TOT= -0.7116216E-04 <-- DLTA
 ------------------------------------------------------------------------------
 Cycle:     97
  WF centre and spread    1  ( -1.235557,  1.203684,  1.274535 )     3.71288831
  WF centre and spread    2  ( -1.754413,  1.709154,  1.312282 )     3.72630015
  WF centre and spread    3  ( -1.436888,  1.515544,  1.836577 )     3.74812397
  Sum of centres and spreads ( -4.426858,  4.428382,  4.423394 )    11.18731242
 
[...]
  Sum of centres and spreads ( -4.426578,  4.429330,  4.423597 )    11.18344370
 
    473    -0.411E-05     0.0011286566       11.1834453083       1.07  <-- CONV
        O_D=      0.0244051 O_OD=      0.4858279 O_TOT=     11.1834453 <-- SPRD
 Delta: O_D=  0.1167159E-05 O_OD= -0.5279512E-05 O_TOT= -0.4112353E-05 <-- DLTA
 ------------------------------------------------------------------------------
 Cycle:    474
  WF centre and spread    1  ( -1.255257,  1.185424,  1.295417 )     3.71922670
  WF centre and spread    2  ( -1.767050,  1.696088,  1.296430 )     3.71956079
  WF centre and spread    3  ( -1.404268,  1.547820,  1.831752 )     3.74465182
  Sum of centres and spreads ( -4.426576,  4.429333,  4.423599 )    11.18343931
 
    474    -0.439E-05     0.0011343069       11.1834409176       1.07  <-- CONV
        O_D=      0.0244074 O_OD=      0.4858212 O_TOT=     11.1834409 <-- SPRD
 Delta: O_D=  0.2313339E-05 O_OD= -0.6704039E-05 O_TOT= -0.4390700E-05 <-- DLTA
 ------------------------------------------------------------------------------
 Cycle:    475
  WF centre and spread    1  ( -1.255266,  1.185417,  1.295419 )     3.71922592
  WF centre and spread    2  ( -1.767057,  1.696081,  1.296430 )     3.71955942
  WF centre and spread    3  ( -1.404253,  1.547835,  1.831749 )     3.74464960
  Sum of centres and spreads ( -4.426575,  4.429333,  4.423599 )    11.18343494
 
    475    -0.437E-05     0.0016251536       11.1834365444       1.07  <-- CONV
        O_D=      0.0244048 O_OD=      0.4858194 O_TOT=     11.1834365 <-- SPRD
 Delta: O_D= -0.2609832E-05 O_OD= -0.1763368E-05 O_TOT= -0.4373201E-05 <-- DLTA
 ------------------------------------------------------------------------------
 Cycle:    476
  WF centre and spread    1  ( -1.255290,  1.185397,  1.295424 )     3.71922661
  WF centre and spread    2  ( -1.767075,  1.696058,  1.296432 )     3.71955871
  WF centre and spread    3  ( -1.404209,  1.547879,  1.831742 )     3.74464551
  Sum of centres and spreads ( -4.426574,  4.429334,  4.423598 )    11.18343083
 
    476    -0.411E-05     0.0011327938       11.1834324354       1.07  <-- CONV
        O_D=      0.0244034 O_OD=      0.4858168 O_TOT=     11.1834324 <-- SPRD
 Delta: O_D= -0.1474104E-05 O_OD= -0.2634913E-05 O_TOT= -0.4109017E-05 <-- DLTA
 ------------------------------------------------------------------------------
 Cycle:    477
  WF centre and spread    1  ( -1.255342,  1.185356,  1.295436 )     3.71922986
  WF centre and spread    2  ( -1.767114,  1.696009,  1.296437 )     3.71955958
  WF centre and spread    3  ( -1.404116,  1.547971,  1.831725 )     3.74463619
  Sum of centres and spreads ( -4.426572,  4.429336,  4.423598 )    11.18342563
 
    477    -0.520E-05     0.0011294045       11.1834272386       1.08  <-- CONV
        O_D=      0.0244026 O_OD=      0.4858123 O_TOT=     11.1834272 <-- SPRD
 Delta: O_D= -0.7448203E-06 O_OD= -0.4451994E-05 O_TOT= -0.5196815E-05 <-- DLTA
 ------------------------------------------------------------------------------
 Cycle:    478
  WF centre and spread    1  ( -1.255442,  1.185278,  1.295460 )     3.71923762
  WF centre and spread    2  ( -1.767185,  1.695916,  1.296448 )     3.71956334
  WF centre and spread    3  ( -1.403942,  1.548145,  1.831692 )     3.74461702
  Sum of centres and spreads ( -4.426569,  4.429340,  4.423600 )    11.18341798
 
    478    -0.765E-05     0.0013496898       11.1834195867       1.08  <-- CONV
        O_D=      0.0244046 O_OD=      0.4858027 O_TOT=     11.1834196 <-- SPRD
 Delta: O_D=  0.1997928E-05 O_OD= -0.9649769E-05 O_TOT= -0.7651840E-05 <-- DLTA
 ------------------------------------------------------------------------------
 Cycle:    479
  WF centre and spread    1  ( -1.255585,  1.185170,  1.295495 )     3.71925068
  WF centre and spread    2  ( -1.767285,  1.695784,  1.296463 )     3.71957029
  WF centre and spread    3  ( -1.403695,  1.548391,  1.831645 )     3.74458765
  Sum of centres and spreads ( -4.426565,  4.429344,  4.423603 )    11.18340862
 
    479    -0.936E-05     0.0015990037       11.1834102226       1.08  <-- CONV
        O_D=      0.0244078 O_OD=      0.4857902 O_TOT=     11.1834102 <-- SPRD
 Delta: O_D=  0.3143537E-05 O_OD= -0.1250772E-04 O_TOT= -0.9364183E-05 <-- DLTA
 ------------------------------------------------------------------------------
 Cycle:    480
  WF centre and spread    1  ( -1.255739,  1.185055,  1.295533 )     3.71926601
  WF centre and spread    2  ( -1.767391,  1.695640,  1.296480 )     3.71957845
  WF centre and spread    3  ( -1.403430,  1.548654,  1.831593 )     3.74455528
  Sum of centres and spreads ( -4.426560,  4.429349,  4.423606 )    11.18339974
 
    480    -0.887E-05     0.0016075294       11.1834013490       1.08  <-- CONV
        O_D=      0.0244127 O_OD=      0.4857764 O_TOT=     11.1834013 <-- SPRD
 Delta: O_D=  0.4926024E-05 O_OD= -0.1379954E-04 O_TOT= -0.8873518E-05 <-- DLTA
 ------------------------------------------------------------------------------
 Cycle:    481
  WF centre and spread    1  ( -1.255749,  1.185048,  1.295535 )     3.71926427
  WF centre and spread    2  ( -1.767397,  1.695632,  1.296481 )     3.71957611
  WF centre and spread    3  ( -1.403414,  1.548669,  1.831590 )     3.74455050
  Sum of centres and spreads ( -4.426560,  4.429350,  4.423606 )    11.18339089
 
    481    -0.886E-05     0.0022959759       11.1833924931       1.08  <-- CONV
        O_D=      0.0244073 O_OD=      0.4857729 O_TOT=     11.1833925 <-- SPRD
 Delta: O_D= -0.5361851E-05 O_OD= -0.3494055E-05 O_TOT= -0.8855906E-05 <-- DLTA
 ------------------------------------------------------------------------------
 Cycle:    482
  WF centre and spread    1  ( -1.255779,  1.185029,  1.295543 )     3.71926547
  WF centre and spread    2  ( -1.767415,  1.695604,  1.296485 )     3.71957536
  WF centre and spread    3  ( -1.403365,  1.548718,  1.831579 )     3.74454066
  Sum of centres and spreads ( -4.426559,  4.429351,  4.423606 )    11.18338149
 
    482    -0.940E-05     0.0016089754       11.1833830930       1.09  <-- CONV
        O_D=      0.0244036 O_OD=      0.4857672 O_TOT=     11.1833831 <-- SPRD
 Delta: O_D= -0.3752950E-05 O_OD= -0.5647128E-05 O_TOT= -0.9400078E-05 <-- DLTA
 ------------------------------------------------------------------------------
 Cycle:    483
  WF centre and spread    1  ( -1.255820,  1.185001,  1.295553 )     3.71926929
  WF centre and spread    2  ( -1.767440,  1.695566,  1.296490 )     3.71957676
  WF centre and spread    3  ( -1.403298,  1.548785,  1.831564 )     3.74452771
  Sum of centres and spreads ( -4.426558,  4.429352,  4.423607 )    11.18337375
 
    483    -0.774E-05     0.0016067156       11.1833753542       1.09  <-- CONV
        O_D=      0.0244012 O_OD=      0.4857619 O_TOT=     11.1833754 <-- SPRD
 Delta: O_D= -0.2370314E-05 O_OD= -0.5368522E-05 O_TOT= -0.7738835E-05 <-- DLTA
 ------------------------------------------------------------------------------
 Cycle:    484
  WF centre and spread    1  ( -1.255864,  1.184972,  1.295564 )     3.71927377
  WF centre and spread    2  ( -1.767467,  1.695525,  1.296495 )     3.71957939
  WF centre and spread    3  ( -1.403226,  1.548856,  1.831548 )     3.74451532
  Sum of centres and spreads ( -4.426557,  4.429353,  4.423608 )    11.18336848
 
    484    -0.527E-05     0.0013596598       11.1833700842       1.09  <-- CONV
        O_D=      0.0244017 O_OD=      0.4857561 O_TOT=     11.1833701 <-- SPRD
 Delta: O_D=  0.4943951E-06 O_OD= -0.5764434E-05 O_TOT= -0.5270038E-05 <-- DLTA
 ------------------------------------------------------------------------------
 Cycle:    485
  WF centre and spread    1  ( -1.255916,  1.184935,  1.295577 )     3.71927905
  WF centre and spread    2  ( -1.767501,  1.695477,  1.296502 )     3.71958285
  WF centre and spread    3  ( -1.403139,  1.548943,  1.831531 )     3.74450239
  Sum of centres and spreads ( -4.426556,  4.429354,  4.423610 )    11.18336429
 
    485    -0.419E-05     0.0011399727       11.1833658929       1.09  <-- CONV
        O_D=      0.0244029 O_OD=      0.4857507 O_TOT=     11.1833659 <-- SPRD
 Delta: O_D=  0.1177836E-05 O_OD= -0.5369068E-05 O_TOT= -0.4191233E-05 <-- DLTA
 ------------------------------------------------------------------------------
 Cycle:    486
  WF centre and spread    1  ( -1.255989,  1.184882,  1.295595 )     3.71928609
  WF centre and spread    2  ( -1.767550,  1.695408,  1.296511 )     3.71958715
  WF centre and spread    3  ( -1.403015,  1.549066,  1.831506 )     3.74448657
  Sum of centres and spreads ( -4.426554,  4.429357,  4.423611 )    11.18335982
 
    486    -0.447E-05     0.0011451089       11.1833614250       1.09  <-- CONV
        O_D=      0.0244052 O_OD=      0.4857439 O_TOT=     11.1833614 <-- SPRD
 Delta: O_D=  0.2355773E-05 O_OD= -0.6823726E-05 O_TOT= -0.4467953E-05 <-- DLTA
 ------------------------------------------------------------------------------
 Cycle:    487
  WF centre and spread    1  ( -1.255997,  1.184875,  1.295597 )     3.71928529
  WF centre and spread    2  ( -1.767557,  1.695400,  1.296511 )     3.71958580
  WF centre and spread    3  ( -1.402999,  1.549082,  1.831503 )     3.74448428
  Sum of centres and spreads ( -4.426553,  4.429357,  4.423611 )    11.18335536
 
    487    -0.446E-05     0.0016407235       11.1833569690       1.10  <-- CONV
        O_D=      0.0244026 O_OD=      0.4857421 O_TOT=     11.1833570 <-- SPRD
 Delta: O_D= -0.2660301E-05 O_OD= -0.1795644E-05 O_TOT= -0.4455945E-05 <-- DLTA
 ------------------------------------------------------------------------------
 Cycle:    488
  WF centre and spread    1  ( -1.256022,  1.184855,  1.295602 )     3.71928597
  WF centre and spread    2  ( -1.767575,  1.695377,  1.296514 )     3.71958517
  WF centre and spread    3  ( -1.402955,  1.549126,  1.831495 )     3.74448003
  Sum of centres and spreads ( -4.426552,  4.429358,  4.423611 )    11.18335117
 
    488    -0.419E-05     0.0011442729       11.1833527799       1.10  <-- CONV
        O_D=      0.0244011 O_OD=      0.4857394 O_TOT=     11.1833528 <-- SPRD
 Delta: O_D= -0.1494613E-05 O_OD= -0.2694571E-05 O_TOT= -0.4189183E-05 <-- DLTA
 ------------------------------------------------------------------------------
 Cycle:    489
  WF centre and spread    1  ( -1.256075,  1.184813,  1.295614 )     3.71928922
  WF centre and spread    2  ( -1.767614,  1.695328,  1.296519 )     3.71958628
  WF centre and spread    3  ( -1.402861,  1.549219,  1.831477 )     3.74447037
  Sum of centres and spreads ( -4.426550,  4.429360,  4.423611 )    11.18334588
 
    489    -0.529E-05     0.0011391078       11.1833474869       1.10  <-- CONV
        O_D=      0.0244003 O_OD=      0.4857349 O_TOT=     11.1833475 <-- SPRD
 Delta: O_D= -0.7341843E-06 O_OD= -0.4558822E-05 O_TOT= -0.5293006E-05 <-- DLTA
 ------------------------------------------------------------------------------
 Cycle:    490
  WF centre and spread    1  ( -1.256175,  1.184736,  1.295638 )     3.71929700
  WF centre and spread    2  ( -1.767686,  1.695234,  1.296531 )     3.71959051
  WF centre and spread    3  ( -1.402685,  1.549394,  1.831444 )     3.74445058
  Sum of centres and spreads ( -4.426547,  4.429364,  4.423613 )    11.18333809
 
    490    -0.779E-05     0.0013636248       11.1833396928       1.10  <-- CONV
        O_D=      0.0244024 O_OD=      0.4857250 O_TOT=     11.1833397 <-- SPRD
 Delta: O_D=  0.2055657E-05 O_OD= -0.9849668E-05 O_TOT= -0.7794011E-05 <-- DLTA
 ------------------------------------------------------------------------------
 Cycle:    491
  WF centre and spread    1  ( -1.256319,  1.184627,  1.295672 )     3.71931005
  WF centre and spread    2  ( -1.767787,  1.695099,  1.296548 )     3.71959812
  WF centre and spread    3  ( -1.402436,  1.549642,  1.831395 )     3.74442039
  Sum of centres and spreads ( -4.426543,  4.429368,  4.423616 )    11.18332855
 
    491    -0.953E-05     0.0016147014       11.1833301587       1.10  <-- CONV
        O_D=      0.0244056 O_OD=      0.4857122 O_TOT=     11.1833302 <-- SPRD
 Delta: O_D=  0.3224658E-05 O_OD= -0.1275876E-04 O_TOT= -0.9534102E-05 <-- DLTA
 ------------------------------------------------------------------------------
 Cycle:    492
  WF centre and spread    1  ( -1.256474,  1.184512,  1.295710 )     3.71932531
  WF centre and spread    2  ( -1.767894,  1.694954,  1.296567 )     3.71960698
  WF centre and spread    3  ( -1.402170,  1.549907,  1.831342 )     3.74438725
  Sum of centres and spreads ( -4.426538,  4.429373,  4.423619 )    11.18331953
 
    492    -0.902E-05     0.0016219957       11.1833211385       1.11  <-- CONV
        O_D=      0.0244106 O_OD=      0.4856982 O_TOT=     11.1833211 <-- SPRD
 Delta: O_D=  0.5018615E-05 O_OD= -0.1403886E-04 O_TOT= -0.9020249E-05 <-- DLTA
 ------------------------------------------------------------------------------
 Cycle:    493
  WF centre and spread    1  ( -1.256484,  1.184506,  1.295712 )     3.71932350
  WF centre and spread    2  ( -1.767900,  1.694946,  1.296568 )     3.71960462
  WF centre and spread    3  ( -1.402155,  1.549922,  1.831339 )     3.74438241
  Sum of centres and spreads ( -4.426538,  4.429373,  4.423618 )    11.18331053
 
    493    -0.900E-05     0.0023140289       11.1833121337       1.11  <-- CONV
        O_D=      0.0244052 O_OD=      0.4856947 O_TOT=     11.1833121 <-- SPRD
 Delta: O_D= -0.5468633E-05 O_OD= -0.3536153E-05 O_TOT= -0.9004786E-05 <-- DLTA
 ------------------------------------------------------------------------------
 Cycle:    494
  WF centre and spread    1  ( -1.256514,  1.184486,  1.295720 )     3.71932458
  WF centre and spread    2  ( -1.767918,  1.694917,  1.296572 )     3.71960395
  WF centre and spread    3  ( -1.402105,  1.549971,  1.831327 )     3.74437241
  Sum of centres and spreads ( -4.426537,  4.429375,  4.423619 )    11.18330094
 
    494    -0.959E-05     0.0016232655       11.1833025460       1.11  <-- CONV
        O_D=      0.0244013 O_OD=      0.4856889 O_TOT=     11.1833025 <-- SPRD
 Delta: O_D= -0.3843961E-05 O_OD= -0.5743714E-05 O_TOT= -0.9587675E-05 <-- DLTA
 ------------------------------------------------------------------------------
 Cycle:    495
  WF centre and spread    1  ( -1.256556,  1.184458,  1.295730 )     3.71932829
  WF centre and spread    2  ( -1.767943,  1.694879,  1.296577 )     3.71960548
  WF centre and spread    3  ( -1.402037,  1.550039,  1.831312 )     3.74435928
  Sum of centres and spreads ( -4.426536,  4.429376,  4.423619 )    11.18329305
 
    495    -0.789E-05     0.0016242838       11.1832946579       1.11  <-- CONV
        O_D=      0.0243989 O_OD=      0.4856835 O_TOT=     11.1832947 <-- SPRD
 Delta: O_D= -0.2437531E-05 O_OD= -0.5450577E-05 O_TOT= -0.7888109E-05 <-- DLTA
 ------------------------------------------------------------------------------
 Cycle:    496
  WF centre and spread    1  ( -1.256600,  1.184429,  1.295741 )     3.71933270
  WF centre and spread    2  ( -1.767971,  1.694837,  1.296583 )     3.71960827
  WF centre and spread    3  ( -1.401965,  1.550111,  1.831296 )     3.74434672
  Sum of centres and spreads ( -4.426535,  4.429377,  4.423621 )    11.18328769
 
    496    -0.536E-05     0.0013706244       11.1832892996       1.11  <-- CONV
        O_D=      0.0243994 O_OD=      0.4856776 O_TOT=     11.1832893 <-- SPRD
 Delta: O_D=  0.4791153E-06 O_OD= -0.5837425E-05 O_TOT= -0.5358310E-05 <-- DLTA
 ------------------------------------------------------------------------------
 Cycle:    497
  WF centre and spread    1  ( -1.256652,  1.184392,  1.295754 )     3.71933795
  WF centre and spread    2  ( -1.768005,  1.694788,  1.296590 )     3.71961196
  WF centre and spread    3  ( -1.401877,  1.550198,  1.831278 )     3.74433351
  Sum of centres and spreads ( -4.426533,  4.429378,  4.423623 )    11.18328343
 
    497    -0.427E-05     0.0011478590       11.1832850326       1.11  <-- CONV
        O_D=      0.0244006 O_OD=      0.4856722 O_TOT=     11.1832850 <-- SPRD
 Delta: O_D=  0.1192439E-05 O_OD= -0.5459471E-05 O_TOT= -0.4267032E-05 <-- DLTA
 ------------------------------------------------------------------------------
 Cycle:    498
  WF centre and spread    1  ( -1.256726,  1.184339,  1.295772 )     3.71934501
  WF centre and spread    2  ( -1.768054,  1.694719,  1.296600 )     3.71961660
  WF centre and spread    3  ( -1.401752,  1.550322,  1.831253 )     3.74431727
  Sum of centres and spreads ( -4.426531,  4.429381,  4.423624 )    11.18327888
 
    498    -0.455E-05     0.0011561419       11.1832804808       1.12  <-- CONV
        O_D=      0.0244030 O_OD=      0.4856652 O_TOT=     11.1832805 <-- SPRD
 Delta: O_D=  0.2411065E-05 O_OD= -0.6962860E-05 O_TOT= -0.4551795E-05 <-- DLTA
 ------------------------------------------------------------------------------
 Cycle:    499
  WF centre and spread    1  ( -1.256734,  1.184332,  1.295774 )     3.71934419
  WF centre and spread    2  ( -1.768061,  1.694711,  1.296601 )     3.71961525
  WF centre and spread    3  ( -1.401736,  1.550338,  1.831250 )     3.74431489
  Sum of centres and spreads ( -4.426531,  4.429381,  4.423624 )    11.18327433
 
    499    -0.455E-05     0.0016589715       11.1832759337       1.12  <-- CONV
        O_D=      0.0244002 O_OD=      0.4856634 O_TOT=     11.1832759 <-- SPRD
 Delta: O_D= -0.2718491E-05 O_OD= -0.1828637E-05 O_TOT= -0.4547128E-05 <-- DLTA
 ------------------------------------------------------------------------------
 Cycle:    500
  WF centre and spread    1  ( -1.256759,  1.184312,  1.295779 )     3.71934487
  WF centre and spread    2  ( -1.768079,  1.694688,  1.296604 )     3.71961471
  WF centre and spread    3  ( -1.401691,  1.550382,  1.831241 )     3.74431049
  Sum of centres and spreads ( -4.426530,  4.429382,  4.423624 )    11.18327007
 
    500    -0.426E-05     0.0011555632       11.1832716719       1.12  <-- CONV
        O_D=      0.0243987 O_OD=      0.4856606 O_TOT=     11.1832717 <-- SPRD
 Delta: O_D= -0.1512496E-05 O_OD= -0.2749286E-05 O_TOT= -0.4261783E-05 <-- DLTA
 ------------------------------------------------------------------------------

 Writing checkpoint file mp-20351.chk... done

 Final State
  WF centre and spread    1  ( -1.256759,  1.184312,  1.295779 )     3.71934487
  WF centre and spread    2  ( -1.768079,  1.694688,  1.296604 )     3.71961471
  WF centre and spread    3  ( -1.401691,  1.550382,  1.831241 )     3.74431049
  Sum of centres and spreads ( -4.426530,  4.429382,  4.423624 )    11.18327007
 
         Spreads (Ang^2)       Omega I      =    10.673212295
        ================       Omega D      =     0.024398735
                               Omega OD     =     0.485660642
    Final Spread (Ang^2)       Omega Total  =    11.183271672
 ------------------------------------------------------------------------------
 Time for wannierise            1.100 (sec)

 Writing checkpoint file mp-20351.chk... done

 Time for plotting              0.000 (sec)
 Total Execution Time           2.074 (sec)

 *===========================================================================*
 |                             TIMING INFORMATION                            |
 *===========================================================================*
 |    Tag                                                Ncalls      Time (s)|
 |---------------------------------------------------------------------------|
 |kmesh: get                                        :         1         0.720|
 |overlap: allocate                                 :         1         0.001|
 |overlap: read                                     :         1         0.085|
 |wann: main                                        :         1         1.100|
 |plot: main                                        :         1         0.000|
 *---------------------------------------------------------------------------*
 
 All done: wannier90 exiting
