
     Program PWSCF v.7.1 starts on  8Apr2024 at 15:13:31 

     This program is part of the open-source Quantum ESPRESSO suite
     for quantum simulation of materials; please cite
         "P. Giannozzi et al., J. Phys.:Condens. Matter 21 395502 (2009);
         "P. Giannozzi et al., J. Phys.:Condens. Matter 29 465901 (2017);
         "P. Giannozzi et al., J. Chem. Phys. 152 154105 (2020);
          URL http://www.quantum-espresso.org", 
     in publications or presentations arising from this work. More details at
     http://www.quantum-espresso.org/quote

     Parallel version (MPI), running on    16 processors

     MPI processes distributed on     1 nodes
     247796 MiB available memory on the printing compute node when the environment starts
 
     Reading input from pw_mp-1228891_scf_k3000_E65.in
Warning: card &CELL ignored
Warning: card / ignored

     Current dimensions of program PWSCF are:
     Max number of different atomic species (ntypx) = 10
     Max number of k-points (npk) =  40000
     Max angular momentum in pseudopotentials (lmaxx) =  4
 
     R & G space division:  proc/nbgrp/npool/nimage =      16
     Subspace diagonalization in iterative solution of the eigenvalue problem:
     a serial algorithm will be used

 
     Parallelization info
     --------------------
     sticks:   dense  smooth     PW     G-vecs:    dense   smooth      PW
     Min         123     123     37                 2735     2735     463
     Max         124     124     38                 2737     2737     465
     Sum        1983    1983    601                43785    43785    7415
 
     Using Slab Decomposition
 


     bravais-lattice index     =            5
     lattice parameter (alat)  =      13.1213  a.u.
     unit-cell volume          =     615.5599 (a.u.)^3
     number of atoms/cell      =            4
     number of atomic types    =            3
     number of electrons       =        34.00
     number of Kohn-Sham states=           34
     kinetic-energy cutoff     =      65.0000  Ry
     charge density cutoff     =     260.0000  Ry
     scf convergence threshold =      1.0E-10
     mixing beta               =       0.7000
     number of iterations used =            8  plain     mixing
     Exchange-correlation= PBE
                           (   1   4   3   4   0   0   0)

     celldm(1)=  13.121299  celldm(2)=   0.000000  celldm(3)=   0.000000
     celldm(4)=   0.833126  celldm(5)=   0.000000  celldm(6)=   0.000000

     crystal axes: (cart. coord. in units of alat)
               a(1) = (   0.288855  -0.166770   0.942736 )  
               a(2) = (   0.000000   0.333541   0.942736 )  
               a(3) = (  -0.288855  -0.166770   0.942736 )  

     reciprocal axes: (cart. coord. in units 2 pi/alat)
               b(1) = (  1.730973 -0.999378  0.353581 )  
               b(2) = (  0.000000  1.998756  0.353581 )  
               b(3) = ( -1.730973 -0.999378  0.353581 )  


     PseudoPot. # 1 for Al read from file:
     /usr/scratch4/magr4826/Promotion/Python/Code/devEb/pseudo/SG15/Al.upf
     MD5 check sum: 2d9e7bc02555220d62fad08c3c4858e7
     Pseudo is Norm-conserving, Zval = 11.0
     Generated using ONCVPSP code by D. R. Hamann
     Using radial grid of  602 points,  4 beta functions with: 
                l(1) =   0
                l(2) =   0
                l(3) =   1
                l(4) =   1

     PseudoPot. # 2 for As read from file:
     /usr/scratch4/magr4826/Promotion/Python/Code/devEb/pseudo/SG15/As.upf
     MD5 check sum: a2ff92a4799c87c945fff9e6739df4dd
     Pseudo is Norm-conserving, Zval =  5.0
     Generated using ONCVPSP code by D. R. Hamann
     Using radial grid of  602 points,  6 beta functions with: 
                l(1) =   0
                l(2) =   0
                l(3) =   1
                l(4) =   1
                l(5) =   2
                l(6) =   2

     PseudoPot. # 3 for Ga read from file:
     /usr/scratch4/magr4826/Promotion/Python/Code/devEb/pseudo/SG15/Ga.upf
     MD5 check sum: 9961a622ff199abf6dfec9a0a10b8555
     Pseudo is Norm-conserving, Zval = 13.0
     Generated using ONCVPSP code by D. R. Hamann
     Using radial grid of  602 points,  6 beta functions with: 
                l(1) =   0
                l(2) =   0
                l(3) =   1
                l(4) =   1
                l(5) =   2
                l(6) =   2

     atomic species   valence    mass     pseudopotential
        Al            11.00    26.98150     Al( 1.00)
        As             5.00    74.92160     As( 1.00)
        Ga            13.00    69.72300     Ga( 1.00)

      6 Sym. Ops. (no inversion) found



   Cartesian axes

     site n.     atom                  positions (alat units)
         1           Al  tau(   1) = (   0.0000000  -0.0000000   0.0006819  )
         2           Ga  tau(   2) = (   0.0000000   0.0000000   1.4137388  )
         3           As  tau(   3) = (   0.0000000  -0.0000000   2.4751217  )
         4           As  tau(   4) = (   0.0000000   0.0000000   1.0598170  )

     number of k points=   116  Gaussian smearing, width (Ry)=  0.0005

     Number of k-points >= 100: set verbosity='high' to print them.

     Dense  grid:    43785 G-vectors     FFT dimensions: (  72,  72,  72)

     Estimated max dynamical RAM per process >      28.88 MB

     Estimated total dynamical RAM >     462.04 MB

     Initial potential from superposition of free atoms

     starting charge      33.7787, renormalised to      34.0000
     Starting wfcs are random

     total cpu time spent up to now is        2.0 secs

     Self-consistent Calculation

     iteration #  1     ecut=    65.00 Ry     beta= 0.70
     Davidson diagonalization with overlap
     c_bands:  1 eigenvalues not converged
     c_bands:  1 eigenvalues not converged
     c_bands:  1 eigenvalues not converged
     c_bands:  2 eigenvalues not converged
     c_bands:  1 eigenvalues not converged
     c_bands:  1 eigenvalues not converged
     c_bands:  1 eigenvalues not converged
     c_bands:  1 eigenvalues not converged
     c_bands:  2 eigenvalues not converged
     c_bands:  1 eigenvalues not converged
     c_bands:  1 eigenvalues not converged
     c_bands:  2 eigenvalues not converged
     c_bands:  2 eigenvalues not converged
     c_bands:  2 eigenvalues not converged
     c_bands:  1 eigenvalues not converged
     c_bands:  2 eigenvalues not converged
     c_bands:  1 eigenvalues not converged
     c_bands:  1 eigenvalues not converged
     c_bands:  3 eigenvalues not converged
     c_bands:  2 eigenvalues not converged
     c_bands:  2 eigenvalues not converged
     c_bands:  2 eigenvalues not converged
     c_bands:  1 eigenvalues not converged
     c_bands:  1 eigenvalues not converged
     c_bands:  1 eigenvalues not converged
     c_bands:  1 eigenvalues not converged
     c_bands:  1 eigenvalues not converged
     c_bands:  1 eigenvalues not converged
     c_bands:  2 eigenvalues not converged
     c_bands:  1 eigenvalues not converged
     c_bands:  1 eigenvalues not converged
     c_bands:  1 eigenvalues not converged
     c_bands:  2 eigenvalues not converged
     c_bands:  1 eigenvalues not converged
     c_bands:  2 eigenvalues not converged
     c_bands:  1 eigenvalues not converged
     c_bands:  2 eigenvalues not converged
     c_bands:  1 eigenvalues not converged
     c_bands:  1 eigenvalues not converged
     c_bands:  2 eigenvalues not converged
     c_bands:  1 eigenvalues not converged
     c_bands:  2 eigenvalues not converged
     c_bands:  1 eigenvalues not converged
     c_bands:  1 eigenvalues not converged
     c_bands:  1 eigenvalues not converged
     c_bands:  2 eigenvalues not converged
     c_bands:  1 eigenvalues not converged
     c_bands:  2 eigenvalues not converged
     c_bands:  2 eigenvalues not converged
     c_bands:  2 eigenvalues not converged
     c_bands:  1 eigenvalues not converged
     c_bands:  1 eigenvalues not converged
     c_bands:  2 eigenvalues not converged
     c_bands:  1 eigenvalues not converged
     c_bands:  1 eigenvalues not converged
     c_bands:  1 eigenvalues not converged
     c_bands:  2 eigenvalues not converged
     c_bands:  2 eigenvalues not converged
     c_bands:  2 eigenvalues not converged
     c_bands:  3 eigenvalues not converged
     c_bands:  1 eigenvalues not converged
     c_bands:  1 eigenvalues not converged
     c_bands:  1 eigenvalues not converged
     c_bands:  1 eigenvalues not converged
     c_bands:  2 eigenvalues not converged
     c_bands:  2 eigenvalues not converged
     c_bands:  2 eigenvalues not converged
     c_bands:  1 eigenvalues not converged
     c_bands:  1 eigenvalues not converged
     c_bands:  1 eigenvalues not converged
     c_bands:  1 eigenvalues not converged
     c_bands:  1 eigenvalues not converged
     c_bands:  1 eigenvalues not converged
     c_bands:  2 eigenvalues not converged
     c_bands:  2 eigenvalues not converged
     c_bands:  1 eigenvalues not converged
     c_bands:  3 eigenvalues not converged
     c_bands:  1 eigenvalues not converged
     c_bands:  1 eigenvalues not converged
     c_bands:  1 eigenvalues not converged
     c_bands:  2 eigenvalues not converged
     c_bands:  1 eigenvalues not converged
     c_bands:  2 eigenvalues not converged
     c_bands:  2 eigenvalues not converged
     c_bands:  1 eigenvalues not converged
     c_bands:  2 eigenvalues not converged
     c_bands:  2 eigenvalues not converged
     c_bands:  2 eigenvalues not converged
     c_bands:  2 eigenvalues not converged
     c_bands:  1 eigenvalues not converged
     c_bands:  2 eigenvalues not converged
     c_bands:  1 eigenvalues not converged
     c_bands:  1 eigenvalues not converged
     ethr =  5.00E-06,  avg # of iterations = 19.7

     total cpu time spent up to now is       19.3 secs

     total energy              =    -295.14532977 Ry
     estimated scf accuracy    <       0.15568039 Ry

     iteration #  2     ecut=    65.00 Ry     beta= 0.70
     Davidson diagonalization with overlap
     ethr =  4.58E-04,  avg # of iterations =  2.4

     total cpu time spent up to now is       24.1 secs

     total energy              =    -295.17689680 Ry
     estimated scf accuracy    <       0.03810435 Ry

     iteration #  3     ecut=    65.00 Ry     beta= 0.70
     Davidson diagonalization with overlap
     ethr =  1.12E-04,  avg # of iterations =  2.3

     total cpu time spent up to now is       27.8 secs

     total energy              =    -295.18361957 Ry
     estimated scf accuracy    <       0.00751811 Ry

     iteration #  4     ecut=    65.00 Ry     beta= 0.70
     Davidson diagonalization with overlap
     ethr =  2.21E-05,  avg # of iterations =  3.6

     total cpu time spent up to now is       31.4 secs

     total energy              =    -295.18553921 Ry
     estimated scf accuracy    <       0.00354074 Ry

     iteration #  5     ecut=    65.00 Ry     beta= 0.70
     Davidson diagonalization with overlap
     ethr =  1.04E-05,  avg # of iterations =  2.7

     total cpu time spent up to now is       36.4 secs

     total energy              =    -295.18616274 Ry
     estimated scf accuracy    <       0.00004942 Ry

     iteration #  6     ecut=    65.00 Ry     beta= 0.70
     Davidson diagonalization with overlap
     ethr =  1.45E-07,  avg # of iterations =  7.0

     total cpu time spent up to now is       41.6 secs

     total energy              =    -295.18617628 Ry
     estimated scf accuracy    <       0.00000408 Ry

     iteration #  7     ecut=    65.00 Ry     beta= 0.70
     Davidson diagonalization with overlap
     ethr =  1.20E-08,  avg # of iterations =  5.5

     total cpu time spent up to now is       45.3 secs

     total energy              =    -295.18617714 Ry
     estimated scf accuracy    <       0.00000021 Ry

     iteration #  8     ecut=    65.00 Ry     beta= 0.70
     Davidson diagonalization with overlap
     ethr =  6.20E-10,  avg # of iterations =  6.1

     total cpu time spent up to now is       49.5 secs

     total energy              =    -295.18617720 Ry
     estimated scf accuracy    <       0.00000002 Ry

     iteration #  9     ecut=    65.00 Ry     beta= 0.70
     Davidson diagonalization with overlap
     ethr =  5.50E-11,  avg # of iterations =  5.1

     total cpu time spent up to now is       53.7 secs

     total energy              =    -295.18617720 Ry
     estimated scf accuracy    <          2.0E-09 Ry

     iteration # 10     ecut=    65.00 Ry     beta= 0.70
     Davidson diagonalization with overlap
     ethr =  5.78E-12,  avg # of iterations =  6.6

     total cpu time spent up to now is       58.0 secs

     End of self-consistent calculation

     Number of k-points >= 100: set verbosity='high' to print the bands.

     the Fermi energy is     6.9328 ev

!    total energy              =    -295.18617720 Ry
     estimated scf accuracy    <          4.4E-11 Ry
     smearing contrib. (-TS)   =      -0.00000000 Ry
     internal energy E=F+TS    =    -295.18617720 Ry

     The total energy is F=E-TS. E is the sum of the following terms:
     one-electron contribution =    -192.59654230 Ry
     hartree contribution      =     100.37305650 Ry
     xc contribution           =     -40.07411919 Ry
     ewald contribution        =    -162.88857221 Ry

     convergence has been achieved in  10 iterations

     Writing all to output data dir out/mp-1228891.save/
 
     init_run     :      1.28s CPU      1.52s WALL (       1 calls)
     electrons    :     49.71s CPU     56.02s WALL (       1 calls)

     Called by init_run:
     wfcinit      :      1.13s CPU      1.20s WALL (       1 calls)
     potinit      :      0.06s CPU      0.20s WALL (       1 calls)
     hinit0       :      0.04s CPU      0.07s WALL (       1 calls)

     Called by electrons:
     c_bands      :     44.99s CPU     51.03s WALL (      10 calls)
     sum_band     :      4.65s CPU      4.71s WALL (      10 calls)
     v_of_rho     :      0.08s CPU      0.08s WALL (      11 calls)
     mix_rho      :      0.00s CPU      0.00s WALL (      10 calls)

     Called by c_bands:
     init_us_2    :      0.17s CPU      0.17s WALL (    2436 calls)
     init_us_2:cp :      0.17s CPU      0.17s WALL (    2436 calls)
     cegterg      :     44.00s CPU     44.62s WALL (    1160 calls)

     Called by *egterg:
     cdiaghg      :      6.80s CPU      6.88s WALL (    8229 calls)
     h_psi        :     35.76s CPU     36.28s WALL (    8345 calls)
     g_psi        :      0.10s CPU      0.10s WALL (    7069 calls)

     Called by h_psi:
     h_psi:calbec :      0.70s CPU      0.71s WALL (    8345 calls)
     vloc_psi     :     34.53s CPU     35.03s WALL (    8345 calls)
     add_vuspsi   :      0.47s CPU      0.48s WALL (    8345 calls)

     General routines
     calbec       :      0.69s CPU      0.70s WALL (    8345 calls)
     fft          :      0.02s CPU      0.06s WALL (     109 calls)
     ffts         :      0.00s CPU      0.00s WALL (      10 calls)
     fftw         :     34.86s CPU     35.36s WALL (  358722 calls)
 
     Parallel routines
 
     PWSCF        :     51.63s CPU     59.39s WALL

 
   This run was terminated on:  15:14:31   8Apr2024            

=------------------------------------------------------------------------------=
   JOB DONE.
=------------------------------------------------------------------------------=
