<?xml version="1.0" encoding="ISO-8859-1"?>
<modeling>
 <generator>
  <i name="program" type="string">vasp </i>
  <i name="version" type="string">5.4.4.18Apr17-6-g9f103f2a35  </i>
  <i name="subversion" type="string">(build Aug 24 2017 11:22:49) complex            parallel </i>
  <i name="platform" type="string">LinuxIFC </i>
  <i name="date" type="string">2023 12 25 </i>
  <i name="time" type="string">13:07:07 </i>
 </generator>
 <incar>
  <i type="string" name="PREC">accurate</i>
  <i type="string" name="ALGO"> Normal</i>
  <i type="int" name="NELM">   100</i>
  <i type="int" name="IBRION">     8</i>
  <i name="EDIFF">      0.00000001</i>
  <i name="SYMPREC">      0.00000001</i>
  <i name="ENCUT">    520.00000000</i>
  <i type="logical" name="LREAL"> F  </i>
  <i type="int" name="ISMEAR">     0</i>
  <i name="SIGMA">      0.01000000</i>
  <i type="logical" name="LWAVE"> F  </i>
  <v type="int" name="KPOINT_BSE">    -1     0     0     0</v>
  <i type="int" name="NELM">   100</i>
  <i type="logical" name="LPEAD"> T  </i>
  <i type="logical" name="LEPSILON"> T  </i>
 </incar>
 <structure name="primitive_cell" >
  <crystal>
   <varray name="basis" >
    <v>      -2.09750964       0.00000000       2.09750964 </v>
    <v>       0.00000000       2.09750964       2.09750964 </v>
    <v>      -2.09750964       2.09750964       0.00000000 </v>
   </varray>
   <i name="volume">     18.45618326 </i>
   <varray name="rec_basis" >
    <v>      -0.23837793      -0.23837793       0.23837793 </v>
    <v>       0.23837793       0.23837793       0.23837793 </v>
    <v>      -0.23837793       0.23837793      -0.23837793 </v>
   </varray>
  </crystal>
  <varray name="positions" >
   <v>       0.00000000       0.00000000       0.00000000 </v>
  </varray>
 </structure>
 <varray name="primitive_index" >
  <v type="int" >        1 </v>
 </varray>
 <kpoints>
  <generation param="Gamma">
   <v type="int" name="divisions">      14       14       14 </v>
   <v name="usershift">      0.00000000       0.00000000       0.00000000 </v>
   <v name="genvec1">      0.07142857       0.00000000       0.00000000 </v>
   <v name="genvec2">      0.00000000       0.07142857      -0.00000000 </v>
   <v name="genvec3">     -0.00000000      -0.00000000       0.07142857 </v>
   <v name="shift">      0.00000000       0.00000000       0.00000000 </v>
  </generation>
  <varray name="kpointlist" >
   <v>       0.00000000       0.00000000       0.00000000 </v>
   <v>       0.07142857      -0.00000000      -0.00000000 </v>
   <v>       0.14285714       0.00000000       0.00000000 </v>
   <v>       0.21428571      -0.00000000      -0.00000000 </v>
   <v>       0.28571429       0.00000000       0.00000000 </v>
   <v>       0.35714286       0.00000000       0.00000000 </v>
   <v>       0.42857143      -0.00000000      -0.00000000 </v>
   <v>       0.50000000       0.00000000       0.00000000 </v>
   <v>       0.07142857       0.07142857      -0.00000000 </v>
   <v>       0.14285714       0.07142857      -0.00000000 </v>
   <v>       0.21428571       0.07142857       0.00000000 </v>
   <v>       0.28571429       0.07142857      -0.00000000 </v>
   <v>       0.35714286       0.07142857       0.00000000 </v>
   <v>       0.42857143       0.07142857       0.00000000 </v>
   <v>       0.50000000       0.07142857      -0.00000000 </v>
   <v>      -0.42857143       0.07142857      -0.00000000 </v>
   <v>      -0.35714286       0.07142857      -0.00000000 </v>
   <v>      -0.28571429       0.07142857       0.00000000 </v>
   <v>      -0.21428571       0.07142857      -0.00000000 </v>
   <v>      -0.14285714       0.07142857      -0.00000000 </v>
   <v>      -0.07142857       0.07142857       0.00000000 </v>
   <v>       0.14285714       0.14285714      -0.00000000 </v>
   <v>       0.21428571       0.14285714      -0.00000000 </v>
   <v>       0.28571429       0.14285714      -0.00000000 </v>
   <v>       0.35714286       0.14285714      -0.00000000 </v>
   <v>       0.42857143       0.14285714       0.00000000 </v>
   <v>       0.50000000       0.14285714      -0.00000000 </v>
   <v>      -0.42857143       0.14285714       0.00000000 </v>
   <v>      -0.35714286       0.14285714      -0.00000000 </v>
   <v>      -0.28571429       0.14285714       0.00000000 </v>
   <v>      -0.21428571       0.14285714      -0.00000000 </v>
   <v>      -0.14285714       0.14285714      -0.00000000 </v>
   <v>       0.21428571       0.21428571      -0.00000000 </v>
   <v>       0.28571429       0.21428571      -0.00000000 </v>
   <v>       0.35714286       0.21428571       0.00000000 </v>
   <v>       0.42857143       0.21428571       0.00000000 </v>
   <v>       0.50000000       0.21428571       0.00000000 </v>
   <v>      -0.42857143       0.21428571      -0.00000000 </v>
   <v>      -0.35714286       0.21428571      -0.00000000 </v>
   <v>      -0.28571429       0.21428571      -0.00000000 </v>
   <v>      -0.21428571       0.21428571       0.00000000 </v>
   <v>       0.28571429       0.28571429      -0.00000000 </v>
   <v>       0.35714286       0.28571429      -0.00000000 </v>
   <v>       0.42857143       0.28571429       0.00000000 </v>
   <v>       0.50000000       0.28571429       0.00000000 </v>
   <v>      -0.42857143       0.28571429      -0.00000000 </v>
   <v>      -0.35714286       0.28571429      -0.00000000 </v>
   <v>      -0.28571429       0.28571429      -0.00000000 </v>
   <v>       0.35714286       0.35714286      -0.00000000 </v>
   <v>       0.42857143       0.35714286      -0.00000000 </v>
   <v>       0.50000000       0.35714286      -0.00000000 </v>
   <v>      -0.42857143       0.35714286      -0.00000000 </v>
   <v>      -0.35714286       0.35714286      -0.00000000 </v>
   <v>       0.42857143       0.42857143      -0.00000000 </v>
   <v>       0.50000000       0.42857143      -0.00000000 </v>
   <v>      -0.42857143       0.42857143       0.00000000 </v>
   <v>       0.50000000       0.50000000      -0.00000000 </v>
   <v>       0.21428571       0.14285714       0.07142857 </v>
   <v>       0.28571429       0.14285714       0.07142857 </v>
   <v>       0.35714286       0.14285714       0.07142857 </v>
   <v>       0.42857143       0.14285714       0.07142857 </v>
   <v>       0.50000000       0.14285714       0.07142857 </v>
   <v>      -0.42857143       0.14285714       0.07142857 </v>
   <v>       0.28571429       0.21428571       0.07142857 </v>
   <v>       0.35714286       0.21428571       0.07142857 </v>
   <v>       0.42857143       0.21428571       0.07142857 </v>
   <v>       0.50000000       0.21428571       0.07142857 </v>
   <v>      -0.42857143       0.21428571       0.07142857 </v>
   <v>      -0.35714286       0.21428571       0.07142857 </v>
   <v>      -0.28571429       0.21428571       0.07142857 </v>
   <v>      -0.21428571       0.21428571       0.07142857 </v>
   <v>      -0.14285714       0.21428571       0.07142857 </v>
   <v>       0.35714286       0.28571429       0.07142857 </v>
   <v>       0.42857143       0.28571429       0.07142857 </v>
   <v>       0.50000000       0.28571429       0.07142857 </v>
   <v>      -0.42857143       0.28571429       0.07142857 </v>
   <v>      -0.35714286       0.28571429       0.07142857 </v>
   <v>      -0.28571429       0.28571429       0.07142857 </v>
   <v>      -0.21428571       0.28571429       0.07142857 </v>
   <v>       0.42857143       0.35714286       0.07142857 </v>
   <v>       0.50000000       0.35714286       0.07142857 </v>
   <v>      -0.42857143       0.35714286       0.07142857 </v>
   <v>      -0.35714286       0.35714286       0.07142857 </v>
   <v>      -0.28571429       0.35714286       0.07142857 </v>
   <v>       0.50000000       0.42857143       0.07142857 </v>
   <v>      -0.42857143       0.42857143       0.07142857 </v>
   <v>      -0.35714286       0.42857143       0.07142857 </v>
   <v>      -0.42857143       0.50000000       0.07142857 </v>
   <v>       0.42857143       0.28571429       0.14285714 </v>
   <v>       0.50000000       0.28571429       0.14285714 </v>
   <v>      -0.42857143       0.28571429       0.14285714 </v>
   <v>      -0.35714286       0.28571429       0.14285714 </v>
   <v>       0.50000000       0.35714286       0.14285714 </v>
   <v>      -0.42857143       0.35714286       0.14285714 </v>
   <v>      -0.35714286       0.35714286       0.14285714 </v>
   <v>      -0.28571429       0.35714286       0.14285714 </v>
   <v>      -0.21428571       0.35714286       0.14285714 </v>
   <v>      -0.42857143       0.42857143       0.14285714 </v>
   <v>      -0.35714286       0.42857143       0.14285714 </v>
   <v>      -0.28571429       0.42857143       0.14285714 </v>
   <v>      -0.35714286       0.50000000       0.14285714 </v>
   <v>      -0.35714286       0.42857143       0.21428571 </v>
   <v>      -0.28571429       0.42857143       0.21428571 </v>
   <v>      -0.28571429       0.50000000       0.21428571 </v>
  </varray>
  <varray name="weights" >
   <v>       0.00036443 </v>
   <v>       0.00291545 </v>
   <v>       0.00291545 </v>
   <v>       0.00291545 </v>
   <v>       0.00291545 </v>
   <v>       0.00291545 </v>
   <v>       0.00291545 </v>
   <v>       0.00145773 </v>
   <v>       0.00218659 </v>
   <v>       0.00874636 </v>
   <v>       0.00874636 </v>
   <v>       0.00874636 </v>
   <v>       0.00874636 </v>
   <v>       0.00874636 </v>
   <v>       0.00874636 </v>
   <v>       0.00874636 </v>
   <v>       0.00874636 </v>
   <v>       0.00874636 </v>
   <v>       0.00874636 </v>
   <v>       0.00874636 </v>
   <v>       0.00437318 </v>
   <v>       0.00218659 </v>
   <v>       0.00874636 </v>
   <v>       0.00874636 </v>
   <v>       0.00874636 </v>
   <v>       0.00874636 </v>
   <v>       0.00874636 </v>
   <v>       0.00874636 </v>
   <v>       0.00874636 </v>
   <v>       0.00874636 </v>
   <v>       0.00874636 </v>
   <v>       0.00437318 </v>
   <v>       0.00218659 </v>
   <v>       0.00874636 </v>
   <v>       0.00874636 </v>
   <v>       0.00874636 </v>
   <v>       0.00874636 </v>
   <v>       0.00874636 </v>
   <v>       0.00874636 </v>
   <v>       0.00874636 </v>
   <v>       0.00437318 </v>
   <v>       0.00218659 </v>
   <v>       0.00874636 </v>
   <v>       0.00874636 </v>
   <v>       0.00874636 </v>
   <v>       0.00874636 </v>
   <v>       0.00874636 </v>
   <v>       0.00437318 </v>
   <v>       0.00218659 </v>
   <v>       0.00874636 </v>
   <v>       0.00874636 </v>
   <v>       0.00874636 </v>
   <v>       0.00437318 </v>
   <v>       0.00218659 </v>
   <v>       0.00874636 </v>
   <v>       0.00437318 </v>
   <v>       0.00109329 </v>
   <v>       0.00874636 </v>
   <v>       0.01749271 </v>
   <v>       0.01749271 </v>
   <v>       0.01749271 </v>
   <v>       0.01749271 </v>
   <v>       0.00874636 </v>
   <v>       0.00874636 </v>
   <v>       0.01749271 </v>
   <v>       0.01749271 </v>
   <v>       0.01749271 </v>
   <v>       0.01749271 </v>
   <v>       0.01749271 </v>
   <v>       0.01749271 </v>
   <v>       0.01749271 </v>
   <v>       0.00874636 </v>
   <v>       0.00874636 </v>
   <v>       0.01749271 </v>
   <v>       0.01749271 </v>
   <v>       0.01749271 </v>
   <v>       0.01749271 </v>
   <v>       0.01749271 </v>
   <v>       0.00874636 </v>
   <v>       0.00874636 </v>
   <v>       0.01749271 </v>
   <v>       0.01749271 </v>
   <v>       0.01749271 </v>
   <v>       0.00874636 </v>
   <v>       0.00874636 </v>
   <v>       0.01749271 </v>
   <v>       0.00874636 </v>
   <v>       0.00437318 </v>
   <v>       0.00874636 </v>
   <v>       0.01749271 </v>
   <v>       0.01749271 </v>
   <v>       0.00874636 </v>
   <v>       0.00874636 </v>
   <v>       0.01749271 </v>
   <v>       0.01749271 </v>
   <v>       0.01749271 </v>
   <v>       0.00874636 </v>
   <v>       0.00874636 </v>
   <v>       0.01749271 </v>
   <v>       0.00874636 </v>
   <v>       0.00437318 </v>
   <v>       0.00874636 </v>
   <v>       0.00874636 </v>
   <v>       0.00437318 </v>
  </varray>
 </kpoints>
 <parameters>
  <separator name="general" >
   <i type="string" name="SYSTEM">unknown system</i>
   <i type="logical" name="LCOMPAT"> F  </i>
  </separator>
  <separator name="electronic" >
   <i type="string" name="PREC">accura</i>
   <i name="ENMAX">    520.00000000</i>
   <i name="ENAUG">    589.42700000</i>
   <i name="EDIFF">      0.00000001</i>
   <i type="int" name="IALGO">    38</i>
   <i type="int" name="IWAVPR">    11</i>
   <i type="int" name="NBANDS">     8</i>
   <i name="NELECT">      8.00000000</i>
   <i type="int" name="TURBO">     0</i>
   <i type="int" name="IRESTART">     0</i>
   <i type="int" name="NREBOOT">     0</i>
   <i type="int" name="NMIN">     0</i>
   <i name="EREF">      0.00000000</i>
   <separator name="electronic smearing" >
    <i type="int" name="ISMEAR">     0</i>
    <i name="SIGMA">      0.01000000</i>
    <i name="KSPACING">      0.50000000</i>
    <i type="logical" name="KGAMMA"> T  </i>
   </separator>
   <separator name="electronic projectors" >
    <i type="logical" name="LREAL"> F  </i>
    <v name="ROPT">      0.00000000</v>
    <i type="int" name="LMAXPAW">  -100</i>
    <i type="int" name="LMAXMIX">     2</i>
    <i type="logical" name="NLSPLINE"> F  </i>
   </separator>
   <separator name="electronic startup" >
    <i type="int" name="ISTART">     0</i>
    <i type="int" name="ICHARG">     2</i>
    <i type="int" name="INIWAV">     1</i>
   </separator>
   <separator name="electronic spin" >
    <i type="int" name="ISPIN">     1</i>
    <i type="logical" name="LNONCOLLINEAR"> F  </i>
    <v name="MAGMOM">      1.00000000</v>
    <i name="NUPDOWN">     -1.00000000</i>
    <i type="logical" name="LSORBIT"> F  </i>
    <v name="SAXIS">      0.00000000      0.00000000      1.00000000</v>
    <i type="logical" name="LSPIRAL"> F  </i>
    <v name="QSPIRAL">      0.00000000      0.00000000      0.00000000</v>
    <i type="logical" name="LZEROZ"> F  </i>
   </separator>
   <separator name="electronic exchange-correlation" >
    <i type="logical" name="LASPH"> F  </i>
    <i type="logical" name="LMETAGGA"> F  </i>
   </separator>
   <separator name="electronic convergence" >
    <i type="int" name="NELM">   100</i>
    <i type="int" name="NELMDL">    -5</i>
    <i type="int" name="NELMIN">     2</i>
    <i name="ENINI">    520.00000000</i>
    <separator name="electronic convergence detail" >
     <i type="logical" name="LDIAG"> T  </i>
     <i type="logical" name="LSUBROT"> F  </i>
     <i name="WEIMIN">      0.00100000</i>
     <i name="EBREAK">      0.00000000</i>
     <i name="DEPER">      0.30000000</i>
     <i type="int" name="NRMM">     4</i>
     <i name="TIME">      0.40000000</i>
    </separator>
   </separator>
   <separator name="electronic mixer" >
    <i name="AMIX">      0.40000000</i>
    <i name="BMIX">      1.00000000</i>
    <i name="AMIN">      0.10000000</i>
    <i name="AMIX_MAG">      1.60000000</i>
    <i name="BMIX_MAG">      1.00000000</i>
    <separator name="electronic mixer details" >
     <i type="int" name="IMIX">     4</i>
     <i type="logical" name="MIXFIRST"> F  </i>
     <i type="int" name="MAXMIX">   -45</i>
     <i name="WC">    100.00000000</i>
     <i type="int" name="INIMIX">     1</i>
     <i type="int" name="MIXPRE">     1</i>
     <i type="int" name="MREMOVE">     5</i>
    </separator>
   </separator>
   <separator name="electronic dipolcorrection" >
    <i type="logical" name="LDIPOL"> F  </i>
    <i type="logical" name="LMONO"> F  </i>
    <i type="int" name="IDIPOL">     0</i>
    <i name="EPSILON">      1.00000000</i>
    <v name="DIPOL">   -100.00000000   -100.00000000   -100.00000000</v>
    <i name="EFIELD">      0.00000000</i>
   </separator>
  </separator>
  <separator name="grids" >
   <i type="int" name="NGX">    24</i>
   <i type="int" name="NGY">    24</i>
   <i type="int" name="NGZ">    24</i>
   <i type="int" name="NGXF">    48</i>
   <i type="int" name="NGYF">    48</i>
   <i type="int" name="NGZF">    48</i>
   <i type="logical" name="ADDGRID"> F  </i>
  </separator>
  <separator name="ionic" >
   <i type="int" name="NSW">     1</i>
   <i type="int" name="IBRION">     8</i>
   <i type="int" name="MDALGO">     0</i>
   <i type="int" name="ISIF">     2</i>
   <i name="PSTRESS">      0.00000000</i>
   <i name="EDIFFG">      0.00000010</i>
   <i type="int" name="NFREE">     0</i>
   <i name="POTIM">      0.50000000</i>
   <i name="SMASS">     -3.00000000</i>
   <i name="SCALEE">      1.00000000</i>
  </separator>
  <separator name="ionic md" >
   <i name="TEBEG">      0.00010000</i>
   <i name="TEEND">      0.00010000</i>
   <i type="int" name="NBLOCK">     1</i>
   <i type="int" name="KBLOCK">     1</i>
   <i type="int" name="NPACO">   256</i>
   <i name="APACO">     16.00000000</i>
  </separator>
  <separator name="symmetry" >
   <i type="int" name="ISYM">     2</i>
   <i name="SYMPREC">      0.00000001</i>
  </separator>
  <separator name="dos" >
   <i type="int" name="LORBIT">     0</i>
   <v name="RWIGS">     -1.00000000</v>
   <i type="int" name="NEDOS">   301</i>
   <i name="EMIN">     10.00000000</i>
   <i name="EMAX">    -10.00000000</i>
   <i name="EFERMI">      0.00000000</i>
  </separator>
  <separator name="writing" >
   <i type="int" name="NWRITE">     2</i>
   <i type="logical" name="LWAVE"> F  </i>
   <i type="logical" name="LDOWNSAMPLE"> F  </i>
   <i type="logical" name="LCHARG"> T  </i>
   <i type="logical" name="LPARD"> F  </i>
   <i type="logical" name="LVTOT"> F  </i>
   <i type="logical" name="LVHAR"> F  </i>
   <i type="logical" name="LELF"> F  </i>
   <i type="logical" name="LOPTICS"> F  </i>
   <v name="STM">      0.00000000      0.00000000      0.00000000      0.00000000      0.00000000      0.00000000      0.00000000</v>
  </separator>
  <separator name="performance" >
   <i type="int" name="NPAR">     8</i>
   <i type="int" name="NSIM">     4</i>
   <i type="int" name="NBLK">    -1</i>
   <i type="logical" name="LPLANE"> T  </i>
   <i type="logical" name="LSCALAPACK"> T  </i>
   <i type="logical" name="LSCAAWARE"> F  </i>
   <i type="logical" name="LSCALU"> F  </i>
   <i type="logical" name="LASYNC"> F  </i>
   <i type="logical" name="LORBITALREAL"> F  </i>
  </separator>
  <separator name="miscellaneous" >
   <i type="int" name="IDIOT">     3</i>
   <i type="int" name="ISPECIAL">     0</i>
   <i type="logical" name="LMUSIC"> F  </i>
   <v name="POMASS">     20.18000000</v>
   <v name="DARWINR">      0.00000000</v>
   <v name="DARWINV">      1.00000000</v>
   <i type="logical" name="LCORR"> T  </i>
  </separator>
  <i type="logical" name="GGA_COMPAT"> T  </i>
  <i type="logical" name="LBERRY"> F  </i>
  <i type="int" name="ICORELEVEL">     0</i>
  <i type="logical" name="LDAU"> F  </i>
  <i type="int" name="I_CONSTRAINED_M">     0</i>
  <separator name="electronic exchange-correlation" >
   <i type="string" name="GGA">--</i>
   <i type="int" name="VOSKOWN">     0</i>
   <i type="logical" name="LHFCALC"> F  </i>
   <i type="string" name="PRECFOCK"></i>
   <i type="logical" name="LSYMGRAD"> F  </i>
   <i type="logical" name="LHFONE"> F  </i>
   <i type="logical" name="LRHFCALC"> F  </i>
   <i type="logical" name="LTHOMAS"> F  </i>
   <i type="logical" name="LMODELHF"> F  </i>
   <i name="ENCUT4O">     -1.00000000</i>
   <i type="int" name="EXXOEP">     0</i>
   <i type="int" name="FOURORBIT">     0</i>
   <i name="AEXX">      0.00000000</i>
   <i name="HFALPHA">      0.00000000</i>
   <i name="MCALPHA">      0.00000000</i>
   <i name="ALDAX">      1.00000000</i>
   <i name="AGGAX">      1.00000000</i>
   <i name="ALDAC">      1.00000000</i>
   <i name="AGGAC">      1.00000000</i>
   <i type="int" name="NKREDX">     1</i>
   <i type="int" name="NKREDY">     1</i>
   <i type="int" name="NKREDZ">     1</i>
   <i type="logical" name="SHIFTRED"> F  </i>
   <i type="logical" name="ODDONLY"> F  </i>
   <i type="logical" name="EVENONLY"> F  </i>
   <i type="int" name="LMAXFOCK">     0</i>
   <i type="int" name="NMAXFOCKAE">     0</i>
   <i type="logical" name="LFOCKAEDFT"> F  </i>
   <i name="HFSCREEN">      0.00000000</i>
   <i name="HFSCREENC">      0.00000000</i>
   <i type="int" name="NBANDSGWLOW">     0</i>
  </separator>
  <separator name="vdW DFT" >
   <i type="logical" name="LUSE_VDW"> F  </i>
   <i name="Zab_VDW">     -0.84910000</i>
   <i name="PARAM1">      0.12340000</i>
   <i name="PARAM2">      1.00000000</i>
   <i name="PARAM3">      0.00000000</i>
  </separator>
  <separator name="model GW" >
   <i type="int" name="MODEL_GW">     0</i>
   <i name="MODEL_EPS0">     11.07370996</i>
   <i name="MODEL_ALPHA">      1.00000000</i>
  </separator>
  <separator name="linear response parameters" >
   <i type="logical" name="LEPSILON"> T  </i>
   <i type="logical" name="LRPA"> F  </i>
   <i type="logical" name="LNABLA"> F  </i>
   <i type="logical" name="LVEL"> F  </i>
   <i type="int" name="KINTER">     0</i>
   <i name="CSHIFT">      0.10000000</i>
   <i name="OMEGAMAX">     -1.00000000</i>
   <i name="DEG_THRESHOLD">      0.00200000</i>
   <i name="RTIME">     -0.10000000</i>
   <i name="WPLASMAI">      0.00000000</i>
   <v name="DFIELD">      0.00000000      0.00000000      0.00000000</v>
   <v name="WPLASMA">      0.00000000      0.00000000      0.00000000      0.00000000      0.00000000      0.00000000      0.00000000      0.00000000      0.00000000</v>
  </separator>
  <separator name="orbital magnetization" >
   <i type="logical" name="NUCIND"> F  </i>
   <v name="MAGPOS">      0.00000000      0.00000000      0.00000000</v>
   <i type="logical" name="LNICSALL"> T  </i>
   <i type="logical" name="ORBITALMAG"> F  </i>
   <i type="logical" name="LMAGBLOCH"> F  </i>
   <i type="logical" name="LCHIMAG"> F  </i>
   <i type="logical" name="LGAUGE"> T  </i>
   <i type="int" name="MAGATOM">     0</i>
   <v name="MAGDIPOL">      0.00000000      0.00000000      0.00000000</v>
   <v name="AVECCONST">      0.00000000      0.00000000      0.00000000</v>
  </separator>
  <separator name="response functions" >
   <i type="logical" name="LADDER"> F  </i>
   <i type="logical" name="LRPAFORCE"> F  </i>
   <i type="logical" name="LFXC"> F  </i>
   <i type="logical" name="LHARTREE"> T  </i>
   <i type="int" name="IBSE">     0</i>
   <v type="int" name="KPOINT">    -1     0     0     0</v>
   <i type="logical" name="LTCTE"> F  </i>
   <i type="logical" name="LTETE"> F  </i>
   <i type="logical" name="LTRIPLET"> F  </i>
   <i type="logical" name="LFXCEPS"> F  </i>
   <i type="logical" name="LFXHEG"> F  </i>
   <i type="int" name="NATURALO">     2</i>
   <i type="logical" name="L2ORDER"> F  </i>
   <i type="logical" name="LMP2LT"> F  </i>
   <i type="logical" name="LUSEW"> F  </i>
   <i name="ENCUTGW">     -2.00000000</i>
   <i name="ENCUTGWSOFT">     -2.00000000</i>
   <i name="ENCUTLF">     -1.00000000</i>
   <i type="int" name="LMAXMP2">    -1</i>
   <i name="SCISSOR">      0.00000000</i>
   <i type="int" name="NOMEGA">     0</i>
   <i type="int" name="NOMEGAR">     0</i>
   <i type="int" name="NBANDSGW">    -1</i>
   <i type="int" name="NBANDSO">    -1</i>
   <i type="int" name="NBANDSV">    -1</i>
   <i type="int" name="NELM">   100</i>
   <i type="int" name="NELMHF">     1</i>
   <i type="int" name="DIM">     3</i>
   <i type="int" name="ANTIRES">     0</i>
   <i name="OMEGAMAX">    -30.00000000</i>
   <i name="OMEGAMIN">    -30.00000000</i>
   <i name="OMEGATL">   -200.00000000</i>
   <i type="int" name="OMEGAGRID">   140</i>
   <i name="CSHIFT">     -0.10000000</i>
   <i type="logical" name="SELFENERGY"> F  </i>
   <i type="logical" name="LSPECTRAL"> F  </i>
   <i type="logical" name="LSPECTRALGW"> F  </i>
   <i type="logical" name="LSINGLES"> F  </i>
   <i type="logical" name="LFERMIGW"> F  </i>
   <i type="logical" name="ODDONLYGW"> F  </i>
   <i type="logical" name="EVENONLYGW"> F  </i>
   <i type="int" name="NKREDLFX">     1</i>
   <i type="int" name="NKREDLFY">     1</i>
   <i type="int" name="NKREDLFZ">     1</i>
   <i type="int" name="MAXMEM">  2800</i>
   <i type="int" name="TELESCOPE">     0</i>
   <i type="int" name="TAUPAR">     1</i>
   <i type="int" name="OMEGAPAR">    -1</i>
   <i name="LAMBDA">      1.00000000</i>
  </separator>
  <separator name="External order field" >
   <i name="OFIELD_KAPPA">      0.00000000</i>
   <v name="OFIELD_K">      0.00000000      0.00000000      0.00000000</v>
   <i name="OFIELD_Q6_NEAR">      0.00000000</i>
   <i name="OFIELD_Q6_FAR">      0.00000000</i>
   <i name="OFIELD_A">      0.00000000</i>
  </separator>
 </parameters>
 <atominfo>
  <atoms>       1 </atoms>
  <types>       1 </types>
  <array name="atoms" >
   <dimension dim="1">ion</dimension>
   <field type="string">element</field>
   <field type="int">atomtype</field>
   <set>
    <rc><c>Ne</c><c>   1</c></rc>
   </set>
  </array>
  <array name="atomtypes" >
   <dimension dim="1">type</dimension>
   <field type="int">atomspertype</field>
   <field type="string">element</field>
   <field>mass</field>
   <field>valence</field>
   <field type="string">pseudopotential</field>
   <set>
    <rc><c>   1</c><c>Ne</c><c>     20.18000000</c><c>      8.00000000</c><c>  PAW_PBE Ne 05Jan2001                  </c></rc>
   </set>
  </array>
 </atominfo>
 <structure name="initialpos" >
  <crystal>
   <varray name="basis" >
    <v>      -2.09750964       0.00000000       2.09750964 </v>
    <v>       0.00000000       2.09750964       2.09750964 </v>
    <v>      -2.09750964       2.09750964       0.00000000 </v>
   </varray>
   <i name="volume">     18.45618326 </i>
   <varray name="rec_basis" >
    <v>      -0.23837793      -0.23837793       0.23837793 </v>
    <v>       0.23837793       0.23837793       0.23837793 </v>
    <v>      -0.23837793       0.23837793      -0.23837793 </v>
   </varray>
  </crystal>
  <varray name="positions" >
   <v>       0.00000000       0.00000000       0.00000000 </v>
  </varray>
 </structure>
 <calculation>
  <scstep>
   <time name="dav">    0.46    0.77</time>
   <time name="total">    0.50    0.86</time>
   <energy>
    <i name="alphaZ">      8.42667662 </i>
    <i name="ewald">   -503.61466150 </i>
    <i name="hartreedc">   -370.01531932 </i>
    <i name="XCdc">     47.94963497 </i>
    <i name="pawpsdc">    789.73709388 </i>
    <i name="pawaedc">   -802.54577275 </i>
    <i name="eentropy">     -0.00005010 </i>
    <i name="bandstr">    -87.56004667 </i>
    <i name="atom">    955.31025407 </i>
    <i name="e_fr_energy">     37.68780921 </i>
    <i name="e_wo_entrp">     37.68785930 </i>
    <i name="e_0_energy">     37.68783426 </i>
   </energy>
  </scstep>
  <scstep>
   <time name="dav">    0.43    0.72</time>
   <time name="total">    0.43    0.72</time>
   <energy>
    <i name="e_fr_energy">      0.35143299 </i>
    <i name="e_wo_entrp">      0.35143299 </i>
    <i name="e_0_energy">      0.35143299 </i>
   </energy>
  </scstep>
  <scstep>
   <time name="dav">    0.63    1.10</time>
   <time name="total">    0.63    1.10</time>
   <energy>
    <i name="e_fr_energy">     -0.01925855 </i>
    <i name="e_wo_entrp">     -0.01925855 </i>
    <i name="e_0_energy">     -0.01925855 </i>
   </energy>
  </scstep>
  <scstep>
   <time name="dav">    0.45    0.81</time>
   <time name="total">    0.45    0.81</time>
   <energy>
    <i name="e_fr_energy">     -0.01975538 </i>
    <i name="e_wo_entrp">     -0.01975538 </i>
    <i name="e_0_energy">     -0.01975538 </i>
   </energy>
  </scstep>
  <scstep>
   <time name="dav">    0.45    0.75</time>
   <time name="total">    0.48    0.81</time>
   <energy>
    <i name="e_fr_energy">     -0.01975633 </i>
    <i name="e_wo_entrp">     -0.01975633 </i>
    <i name="e_0_energy">     -0.01975633 </i>
   </energy>
  </scstep>
  <scstep>
   <time name="dav">    0.49    0.81</time>
   <time name="total">    0.54    0.89</time>
   <energy>
    <i name="e_fr_energy">     -0.01954707 </i>
    <i name="e_wo_entrp">     -0.01954707 </i>
    <i name="e_0_energy">     -0.01954707 </i>
   </energy>
  </scstep>
  <scstep>
   <time name="dav">    0.36    0.62</time>
   <time name="total">    0.39    0.69</time>
   <energy>
    <i name="e_fr_energy">     -0.01959930 </i>
    <i name="e_wo_entrp">     -0.01959930 </i>
    <i name="e_0_energy">     -0.01959930 </i>
   </energy>
  </scstep>
  <scstep>
   <time name="dav">    0.49    0.84</time>
   <time name="total">    0.52    0.91</time>
   <energy>
    <i name="e_fr_energy">     -0.01965280 </i>
    <i name="e_wo_entrp">     -0.01965280 </i>
    <i name="e_0_energy">     -0.01965280 </i>
   </energy>
  </scstep>
  <scstep>
   <time name="dav">    0.48    0.79</time>
   <time name="total">    0.51    0.84</time>
   <energy>
    <i name="e_fr_energy">     -0.01965237 </i>
    <i name="e_wo_entrp">     -0.01965237 </i>
    <i name="e_0_energy">     -0.01965237 </i>
   </energy>
  </scstep>
  <scstep>
   <time name="dav">    0.37    0.63</time>
   <time name="total">    0.41    0.71</time>
   <energy>
    <i name="e_fr_energy">     -0.01965221 </i>
    <i name="e_wo_entrp">     -0.01965221 </i>
    <i name="e_0_energy">     -0.01965221 </i>
   </energy>
  </scstep>
  <scstep>
   <time name="dav">    0.23    0.38</time>
   <time name="total">    0.27    0.45</time>
   <energy>
    <i name="e_fr_energy">     -0.01965219 </i>
    <i name="e_wo_entrp">     -0.01965219 </i>
    <i name="e_0_energy">     -0.01965219 </i>
   </energy>
  </scstep>
  <scstep>
   <time name="dav">    0.20    0.31</time>
   <time name="total">    0.24    0.41</time>
   <energy>
    <i name="e_fr_energy">     -0.01965218 </i>
    <i name="e_wo_entrp">     -0.01965218 </i>
    <i name="e_0_energy">     -0.01965218 </i>
   </energy>
  </scstep>
  <scstep>
   <time name="dav">    0.23    0.39</time>
   <time name="total">    0.26    0.45</time>
   <energy>
    <i name="alphaZ">      8.42667662 </i>
    <i name="ewald">   -503.61466150 </i>
    <i name="hartreedc">   -370.20696287 </i>
    <i name="XCdc">     47.96078873 </i>
    <i name="pawpsdc">    790.52522155 </i>
    <i name="pawaedc">   -803.37064931 </i>
    <i name="eentropy">     -0.00000000 </i>
    <i name="bandstr">   -125.05031947 </i>
    <i name="atom">    955.31025407 </i>
    <i name="e_fr_energy">     -0.01965218 </i>
    <i name="e_wo_entrp">     -0.01965218 </i>
    <i name="e_0_energy">     -0.01965218 </i>
   </energy>
  </scstep>
  <structure>
   <crystal>
    <varray name="basis" >
     <v>      -2.09750964       0.00000000       2.09750964 </v>
     <v>       0.00000000       2.09750964       2.09750964 </v>
     <v>      -2.09750964       2.09750964       0.00000000 </v>
    </varray>
    <i name="volume">     18.45618326 </i>
    <varray name="rec_basis" >
     <v>      -0.23837793      -0.23837793       0.23837793 </v>
     <v>       0.23837793       0.23837793       0.23837793 </v>
     <v>      -0.23837793       0.23837793      -0.23837793 </v>
    </varray>
   </crystal>
   <varray name="positions" >
    <v>       0.00000000       0.00000000       0.00000000 </v>
   </varray>
  </structure>
  <varray name="forces" >
   <v>      -0.00000000       0.00000000       0.00000000 </v>
  </varray>
  <varray name="stress" >
   <v>       3.58705206       0.00000000       0.00000000 </v>
   <v>       0.00000000       3.58705206       0.00000000 </v>
   <v>       0.00000000       0.00000000       3.58705206 </v>
  </varray>
  <energy>
   <i name="e_fr_energy">     -0.01965218 </i>
   <i name="e_wo_entrp">     -0.01965218 </i>
   <i name="e_0_energy">     -0.00000000 </i>
  </energy>
  <scstep>
   <time name="total">    0.25    0.45</time>
   <energy>
    <i name="e_fr_energy">     -0.01833658 </i>
    <i name="e_wo_entrp">     -0.01833658 </i>
    <i name="e_0_energy">     -0.01833658 </i>
   </energy>
  </scstep>
  <scstep>
   <time name="total">    0.25    0.41</time>
   <energy>
    <i name="e_fr_energy">     -0.01819310 </i>
    <i name="e_wo_entrp">     -0.01819310 </i>
    <i name="e_0_energy">     -0.01819310 </i>
   </energy>
  </scstep>
  <scstep>
   <time name="total">    0.24    0.40</time>
   <energy>
    <i name="e_fr_energy">     -0.01819176 </i>
    <i name="e_wo_entrp">     -0.01819176 </i>
    <i name="e_0_energy">     -0.01819176 </i>
   </energy>
  </scstep>
  <scstep>
   <time name="total">    0.25    0.41</time>
   <energy>
    <i name="e_fr_energy">     -0.01819176 </i>
    <i name="e_wo_entrp">     -0.01819176 </i>
    <i name="e_0_energy">     -0.01819176 </i>
   </energy>
  </scstep>
  <scstep>
   <time name="total">    0.25    0.44</time>
   <energy>
    <i name="e_fr_energy">     -0.01816422 </i>
    <i name="e_wo_entrp">     -0.01816422 </i>
    <i name="e_0_energy">     -0.01816422 </i>
   </energy>
  </scstep>
  <scstep>
   <time name="total">    0.22    0.37</time>
   <energy>
    <i name="e_fr_energy">     -0.01803290 </i>
    <i name="e_wo_entrp">     -0.01803290 </i>
    <i name="e_0_energy">     -0.01803290 </i>
   </energy>
  </scstep>
  <scstep>
   <time name="total">    0.22    0.36</time>
   <energy>
    <i name="e_fr_energy">     -0.01803198 </i>
    <i name="e_wo_entrp">     -0.01803198 </i>
    <i name="e_0_energy">     -0.01803198 </i>
   </energy>
  </scstep>
  <scstep>
   <time name="total">    0.22    0.37</time>
   <energy>
    <i name="e_fr_energy">     -0.01803198 </i>
    <i name="e_wo_entrp">     -0.01803198 </i>
    <i name="e_0_energy">     -0.01803198 </i>
   </energy>
  </scstep>
  <scstep>
   <time name="total">    0.24    0.43</time>
   <energy>
    <i name="e_fr_energy">     -0.01512188 </i>
    <i name="e_wo_entrp">     -0.01512188 </i>
    <i name="e_0_energy">     -0.01512188 </i>
   </energy>
  </scstep>
  <scstep>
   <time name="total">    0.23    0.40</time>
   <energy>
    <i name="e_fr_energy">     -0.01511447 </i>
    <i name="e_wo_entrp">     -0.01511447 </i>
    <i name="e_0_energy">     -0.01511447 </i>
   </energy>
  </scstep>
  <scstep>
   <time name="total">    0.23    0.38</time>
   <energy>
    <i name="e_fr_energy">     -0.01511407 </i>
    <i name="e_wo_entrp">     -0.01511407 </i>
    <i name="e_0_energy">     -0.01511407 </i>
   </energy>
  </scstep>
  <scstep>
   <time name="total">    0.22    0.36</time>
   <energy>
    <i name="e_fr_energy">     -0.01511407 </i>
    <i name="e_wo_entrp">     -0.01511407 </i>
    <i name="e_0_energy">     -0.01511407 </i>
   </energy>
  </scstep>
  <varray name="epsilon_rpa" >
   <v>       1.33555983      -0.00000000       0.00000000 </v>
   <v>      -0.00000000       1.33555983      -0.00000000 </v>
   <v>       0.00000000      -0.00000000       1.33555983 </v>
  </varray>
  <kpoints>
   <generation param="Gamma">
    <v type="int" name="divisions">      14       14       14 </v>
    <v name="usershift">      0.00000000       0.00000000       0.00000000 </v>
    <v name="genvec1">      0.07142857       0.00000000       0.00000000 </v>
    <v name="genvec2">      0.00000000       0.07142857      -0.00000000 </v>
    <v name="genvec3">     -0.00000000      -0.00000000       0.07142857 </v>
    <v name="shift">      0.00000000       0.00000000       0.00000000 </v>
   </generation>
   <varray name="kpointlist" >
    <v>       0.00000000       0.00000000       0.00000000 </v>
    <v>       0.07142857      -0.00000000      -0.00000000 </v>
    <v>       0.14285714       0.00000000       0.00000000 </v>
    <v>       0.21428571      -0.00000000      -0.00000000 </v>
    <v>       0.28571429       0.00000000       0.00000000 </v>
    <v>       0.35714286       0.00000000       0.00000000 </v>
    <v>       0.42857143      -0.00000000      -0.00000000 </v>
    <v>       0.50000000       0.00000000       0.00000000 </v>
    <v>       0.07142857       0.07142857      -0.00000000 </v>
    <v>       0.14285714       0.07142857      -0.00000000 </v>
    <v>       0.21428571       0.07142857       0.00000000 </v>
    <v>       0.28571429       0.07142857      -0.00000000 </v>
    <v>       0.35714286       0.07142857       0.00000000 </v>
    <v>       0.42857143       0.07142857       0.00000000 </v>
    <v>       0.50000000       0.07142857      -0.00000000 </v>
    <v>      -0.42857143       0.07142857      -0.00000000 </v>
    <v>      -0.35714286       0.07142857      -0.00000000 </v>
    <v>      -0.28571429       0.07142857       0.00000000 </v>
    <v>      -0.21428571       0.07142857      -0.00000000 </v>
    <v>      -0.14285714       0.07142857      -0.00000000 </v>
    <v>      -0.07142857       0.07142857       0.00000000 </v>
    <v>       0.14285714       0.14285714      -0.00000000 </v>
    <v>       0.21428571       0.14285714      -0.00000000 </v>
    <v>       0.28571429       0.14285714      -0.00000000 </v>
    <v>       0.35714286       0.14285714      -0.00000000 </v>
    <v>       0.42857143       0.14285714       0.00000000 </v>
    <v>       0.50000000       0.14285714      -0.00000000 </v>
    <v>      -0.42857143       0.14285714       0.00000000 </v>
    <v>      -0.35714286       0.14285714      -0.00000000 </v>
    <v>      -0.28571429       0.14285714       0.00000000 </v>
    <v>      -0.21428571       0.14285714      -0.00000000 </v>
    <v>      -0.14285714       0.14285714      -0.00000000 </v>
    <v>       0.21428571       0.21428571      -0.00000000 </v>
    <v>       0.28571429       0.21428571      -0.00000000 </v>
    <v>       0.35714286       0.21428571       0.00000000 </v>
    <v>       0.42857143       0.21428571       0.00000000 </v>
    <v>       0.50000000       0.21428571       0.00000000 </v>
    <v>      -0.42857143       0.21428571      -0.00000000 </v>
    <v>      -0.35714286       0.21428571      -0.00000000 </v>
    <v>      -0.28571429       0.21428571      -0.00000000 </v>
    <v>      -0.21428571       0.21428571       0.00000000 </v>
    <v>       0.28571429       0.28571429      -0.00000000 </v>
    <v>       0.35714286       0.28571429      -0.00000000 </v>
    <v>       0.42857143       0.28571429       0.00000000 </v>
    <v>       0.50000000       0.28571429       0.00000000 </v>
    <v>      -0.42857143       0.28571429      -0.00000000 </v>
    <v>      -0.35714286       0.28571429      -0.00000000 </v>
    <v>      -0.28571429       0.28571429      -0.00000000 </v>
    <v>       0.35714286       0.35714286      -0.00000000 </v>
    <v>       0.42857143       0.35714286      -0.00000000 </v>
    <v>       0.50000000       0.35714286      -0.00000000 </v>
    <v>      -0.42857143       0.35714286      -0.00000000 </v>
    <v>      -0.35714286       0.35714286      -0.00000000 </v>
    <v>       0.42857143       0.42857143      -0.00000000 </v>
    <v>       0.50000000       0.42857143      -0.00000000 </v>
    <v>      -0.42857143       0.42857143       0.00000000 </v>
    <v>       0.50000000       0.50000000      -0.00000000 </v>
    <v>       0.07142857       0.00000000       0.07142857 </v>
    <v>       0.14285714      -0.00000000       0.07142857 </v>
    <v>       0.21428571       0.00000000       0.07142857 </v>
    <v>       0.28571429      -0.00000000       0.07142857 </v>
    <v>       0.35714286       0.00000000       0.07142857 </v>
    <v>       0.42857143       0.00000000       0.07142857 </v>
    <v>       0.50000000      -0.00000000       0.07142857 </v>
    <v>      -0.42857143      -0.00000000       0.07142857 </v>
    <v>      -0.35714286      -0.00000000       0.07142857 </v>
    <v>      -0.28571429       0.00000000       0.07142857 </v>
    <v>      -0.21428571      -0.00000000       0.07142857 </v>
    <v>      -0.14285714      -0.00000000       0.07142857 </v>
    <v>      -0.07142857       0.00000000       0.07142857 </v>
    <v>       0.21428571       0.14285714       0.07142857 </v>
    <v>       0.28571429       0.14285714       0.07142857 </v>
    <v>       0.35714286       0.14285714       0.07142857 </v>
    <v>       0.42857143       0.14285714       0.07142857 </v>
    <v>       0.50000000       0.14285714       0.07142857 </v>
    <v>      -0.42857143       0.14285714       0.07142857 </v>
    <v>       0.14285714       0.21428571       0.07142857 </v>
    <v>       0.28571429       0.21428571       0.07142857 </v>
    <v>       0.35714286       0.21428571       0.07142857 </v>
    <v>       0.42857143       0.21428571       0.07142857 </v>
    <v>       0.50000000       0.21428571       0.07142857 </v>
    <v>      -0.42857143       0.21428571       0.07142857 </v>
    <v>      -0.35714286       0.21428571       0.07142857 </v>
    <v>      -0.28571429       0.21428571       0.07142857 </v>
    <v>      -0.21428571       0.21428571       0.07142857 </v>
    <v>      -0.14285714       0.21428571       0.07142857 </v>
    <v>       0.14285714       0.28571429       0.07142857 </v>
    <v>       0.21428571       0.28571429       0.07142857 </v>
    <v>       0.35714286       0.28571429       0.07142857 </v>
    <v>       0.42857143       0.28571429       0.07142857 </v>
    <v>       0.50000000       0.28571429       0.07142857 </v>
    <v>      -0.42857143       0.28571429       0.07142857 </v>
    <v>      -0.35714286       0.28571429       0.07142857 </v>
    <v>      -0.28571429       0.28571429       0.07142857 </v>
    <v>      -0.21428571       0.28571429       0.07142857 </v>
    <v>       0.14285714       0.35714286       0.07142857 </v>
    <v>       0.21428571       0.35714286       0.07142857 </v>
    <v>       0.28571429       0.35714286       0.07142857 </v>
    <v>       0.42857143       0.35714286       0.07142857 </v>
    <v>       0.50000000       0.35714286       0.07142857 </v>
    <v>      -0.42857143       0.35714286       0.07142857 </v>
    <v>      -0.35714286       0.35714286       0.07142857 </v>
    <v>      -0.28571429       0.35714286       0.07142857 </v>
    <v>       0.14285714       0.42857143       0.07142857 </v>
    <v>       0.21428571       0.42857143       0.07142857 </v>
    <v>       0.28571429       0.42857143       0.07142857 </v>
    <v>       0.35714286       0.42857143       0.07142857 </v>
    <v>       0.50000000       0.42857143       0.07142857 </v>
    <v>      -0.42857143       0.42857143       0.07142857 </v>
    <v>      -0.35714286       0.42857143       0.07142857 </v>
    <v>       0.14285714       0.50000000       0.07142857 </v>
    <v>       0.21428571       0.50000000       0.07142857 </v>
    <v>       0.28571429       0.50000000       0.07142857 </v>
    <v>       0.35714286       0.50000000       0.07142857 </v>
    <v>       0.42857143       0.50000000       0.07142857 </v>
    <v>      -0.42857143       0.50000000       0.07142857 </v>
    <v>       0.14285714      -0.42857143       0.07142857 </v>
    <v>       0.21428571      -0.42857143       0.07142857 </v>
    <v>       0.28571429      -0.42857143       0.07142857 </v>
    <v>       0.35714286      -0.42857143       0.07142857 </v>
    <v>       0.42857143      -0.42857143       0.07142857 </v>
    <v>       0.50000000      -0.42857143       0.07142857 </v>
    <v>       0.14285714      -0.35714286       0.07142857 </v>
    <v>       0.21428571      -0.35714286       0.07142857 </v>
    <v>       0.28571429      -0.35714286       0.07142857 </v>
    <v>       0.35714286      -0.35714286       0.07142857 </v>
    <v>       0.42857143      -0.35714286       0.07142857 </v>
    <v>       0.14285714      -0.28571429       0.07142857 </v>
    <v>       0.21428571      -0.28571429       0.07142857 </v>
    <v>       0.28571429      -0.28571429       0.07142857 </v>
    <v>       0.35714286      -0.28571429       0.07142857 </v>
    <v>       0.14285714      -0.21428571       0.07142857 </v>
    <v>       0.21428571      -0.21428571       0.07142857 </v>
    <v>       0.28571429      -0.21428571       0.07142857 </v>
    <v>       0.14285714      -0.14285714       0.07142857 </v>
    <v>       0.21428571      -0.14285714       0.07142857 </v>
    <v>       0.14285714      -0.07142857       0.07142857 </v>
    <v>       0.14285714       0.00000000       0.14285714 </v>
    <v>       0.21428571      -0.00000000       0.14285714 </v>
    <v>       0.28571429      -0.00000000       0.14285714 </v>
    <v>       0.35714286      -0.00000000       0.14285714 </v>
    <v>       0.42857143       0.00000000       0.14285714 </v>
    <v>       0.50000000      -0.00000000       0.14285714 </v>
    <v>      -0.42857143       0.00000000       0.14285714 </v>
    <v>      -0.35714286      -0.00000000       0.14285714 </v>
    <v>      -0.28571429       0.00000000       0.14285714 </v>
    <v>      -0.21428571      -0.00000000       0.14285714 </v>
    <v>      -0.14285714      -0.00000000       0.14285714 </v>
    <v>       0.42857143       0.28571429       0.14285714 </v>
    <v>       0.50000000       0.28571429       0.14285714 </v>
    <v>      -0.42857143       0.28571429       0.14285714 </v>
    <v>      -0.35714286       0.28571429       0.14285714 </v>
    <v>       0.21428571       0.35714286       0.14285714 </v>
    <v>       0.50000000       0.35714286       0.14285714 </v>
    <v>      -0.42857143       0.35714286       0.14285714 </v>
    <v>      -0.35714286       0.35714286       0.14285714 </v>
    <v>      -0.28571429       0.35714286       0.14285714 </v>
    <v>      -0.21428571       0.35714286       0.14285714 </v>
    <v>       0.21428571       0.42857143       0.14285714 </v>
    <v>       0.28571429       0.42857143       0.14285714 </v>
    <v>      -0.42857143       0.42857143       0.14285714 </v>
    <v>      -0.35714286       0.42857143       0.14285714 </v>
    <v>      -0.28571429       0.42857143       0.14285714 </v>
    <v>       0.21428571       0.50000000       0.14285714 </v>
    <v>       0.28571429       0.50000000       0.14285714 </v>
    <v>       0.35714286       0.50000000       0.14285714 </v>
    <v>      -0.35714286       0.50000000       0.14285714 </v>
    <v>       0.21428571      -0.42857143       0.14285714 </v>
    <v>       0.28571429      -0.42857143       0.14285714 </v>
    <v>       0.35714286      -0.42857143       0.14285714 </v>
    <v>       0.42857143      -0.42857143       0.14285714 </v>
    <v>       0.21428571      -0.35714286       0.14285714 </v>
    <v>       0.28571429      -0.35714286       0.14285714 </v>
    <v>       0.35714286      -0.35714286       0.14285714 </v>
    <v>       0.42857143      -0.35714286       0.14285714 </v>
    <v>       0.50000000      -0.35714286       0.14285714 </v>
    <v>       0.21428571      -0.28571429       0.14285714 </v>
    <v>       0.28571429      -0.28571429       0.14285714 </v>
    <v>       0.35714286      -0.28571429       0.14285714 </v>
    <v>       0.42857143      -0.28571429       0.14285714 </v>
    <v>       0.21428571      -0.21428571       0.14285714 </v>
    <v>       0.28571429      -0.21428571       0.14285714 </v>
    <v>       0.35714286      -0.21428571       0.14285714 </v>
    <v>       0.21428571      -0.14285714       0.14285714 </v>
    <v>       0.28571429      -0.14285714       0.14285714 </v>
    <v>       0.21428571      -0.07142857       0.14285714 </v>
    <v>       0.21428571       0.00000000       0.21428571 </v>
    <v>       0.28571429      -0.00000000       0.21428571 </v>
    <v>       0.35714286       0.00000000       0.21428571 </v>
    <v>       0.42857143      -0.00000000       0.21428571 </v>
    <v>       0.50000000       0.00000000       0.21428571 </v>
    <v>      -0.42857143      -0.00000000       0.21428571 </v>
    <v>      -0.35714286      -0.00000000       0.21428571 </v>
    <v>      -0.28571429      -0.00000000       0.21428571 </v>
    <v>      -0.21428571       0.00000000       0.21428571 </v>
    <v>      -0.35714286       0.42857143       0.21428571 </v>
    <v>      -0.28571429       0.42857143       0.21428571 </v>
    <v>       0.28571429       0.50000000       0.21428571 </v>
    <v>      -0.28571429       0.50000000       0.21428571 </v>
    <v>       0.28571429      -0.42857143       0.21428571 </v>
    <v>       0.35714286      -0.42857143       0.21428571 </v>
    <v>       0.28571429      -0.35714286       0.21428571 </v>
    <v>       0.35714286      -0.35714286       0.21428571 </v>
    <v>       0.42857143      -0.35714286       0.21428571 </v>
    <v>       0.28571429      -0.28571429       0.21428571 </v>
    <v>       0.35714286      -0.28571429       0.21428571 </v>
    <v>       0.42857143      -0.28571429       0.21428571 </v>
    <v>       0.50000000      -0.28571429       0.21428571 </v>
    <v>       0.28571429      -0.21428571       0.21428571 </v>
    <v>       0.35714286      -0.21428571       0.21428571 </v>
    <v>       0.42857143      -0.21428571       0.21428571 </v>
    <v>       0.28571429      -0.14285714       0.21428571 </v>
    <v>       0.35714286      -0.14285714       0.21428571 </v>
    <v>       0.28571429      -0.07142857       0.21428571 </v>
    <v>       0.28571429       0.00000000       0.28571429 </v>
    <v>       0.35714286      -0.00000000       0.28571429 </v>
    <v>       0.42857143       0.00000000       0.28571429 </v>
    <v>       0.50000000      -0.00000000       0.28571429 </v>
    <v>      -0.42857143      -0.00000000       0.28571429 </v>
    <v>      -0.35714286      -0.00000000       0.28571429 </v>
    <v>      -0.28571429      -0.00000000       0.28571429 </v>
    <v>       0.35714286      -0.35714286       0.28571429 </v>
    <v>       0.35714286      -0.28571429       0.28571429 </v>
    <v>       0.42857143      -0.28571429       0.28571429 </v>
    <v>       0.35714286      -0.21428571       0.28571429 </v>
    <v>       0.42857143      -0.21428571       0.28571429 </v>
    <v>       0.50000000      -0.21428571       0.28571429 </v>
    <v>       0.35714286      -0.14285714       0.28571429 </v>
    <v>       0.42857143      -0.14285714       0.28571429 </v>
    <v>       0.35714286      -0.07142857       0.28571429 </v>
    <v>       0.35714286       0.00000000       0.35714286 </v>
    <v>       0.42857143      -0.00000000       0.35714286 </v>
    <v>       0.50000000      -0.00000000       0.35714286 </v>
    <v>      -0.42857143      -0.00000000       0.35714286 </v>
    <v>      -0.35714286      -0.00000000       0.35714286 </v>
    <v>       0.42857143      -0.21428571       0.35714286 </v>
    <v>       0.42857143      -0.14285714       0.35714286 </v>
    <v>       0.50000000      -0.14285714       0.35714286 </v>
    <v>       0.42857143      -0.07142857       0.35714286 </v>
    <v>       0.42857143       0.00000000       0.42857143 </v>
    <v>       0.50000000      -0.00000000       0.42857143 </v>
    <v>      -0.42857143       0.00000000       0.42857143 </v>
    <v>       0.50000000      -0.07142857       0.42857143 </v>
    <v>       0.50000000       0.00000000       0.50000000 </v>
   </varray>
   <varray name="weights" >
    <v>       0.00036443 </v>
    <v>       0.00291545 </v>
    <v>       0.00291545 </v>
    <v>       0.00291545 </v>
    <v>       0.00291545 </v>
    <v>       0.00291545 </v>
    <v>       0.00291545 </v>
    <v>       0.00145773 </v>
    <v>       0.00145773 </v>
    <v>       0.00583090 </v>
    <v>       0.00583090 </v>
    <v>       0.00583090 </v>
    <v>       0.00583090 </v>
    <v>       0.00583090 </v>
    <v>       0.00583090 </v>
    <v>       0.00583090 </v>
    <v>       0.00583090 </v>
    <v>       0.00583090 </v>
    <v>       0.00583090 </v>
    <v>       0.00583090 </v>
    <v>       0.00291545 </v>
    <v>       0.00145773 </v>
    <v>       0.00583090 </v>
    <v>       0.00583090 </v>
    <v>       0.00583090 </v>
    <v>       0.00583090 </v>
    <v>       0.00583090 </v>
    <v>       0.00583090 </v>
    <v>       0.00583090 </v>
    <v>       0.00583090 </v>
    <v>       0.00583090 </v>
    <v>       0.00291545 </v>
    <v>       0.00145773 </v>
    <v>       0.00583090 </v>
    <v>       0.00583090 </v>
    <v>       0.00583090 </v>
    <v>       0.00583090 </v>
    <v>       0.00583090 </v>
    <v>       0.00583090 </v>
    <v>       0.00583090 </v>
    <v>       0.00291545 </v>
    <v>       0.00145773 </v>
    <v>       0.00583090 </v>
    <v>       0.00583090 </v>
    <v>       0.00583090 </v>
    <v>       0.00583090 </v>
    <v>       0.00583090 </v>
    <v>       0.00291545 </v>
    <v>       0.00145773 </v>
    <v>       0.00583090 </v>
    <v>       0.00583090 </v>
    <v>       0.00583090 </v>
    <v>       0.00291545 </v>
    <v>       0.00145773 </v>
    <v>       0.00583090 </v>
    <v>       0.00291545 </v>
    <v>       0.00072886 </v>
    <v>       0.00072886 </v>
    <v>       0.00291545 </v>
    <v>       0.00291545 </v>
    <v>       0.00291545 </v>
    <v>       0.00291545 </v>
    <v>       0.00291545 </v>
    <v>       0.00291545 </v>
    <v>       0.00291545 </v>
    <v>       0.00291545 </v>
    <v>       0.00291545 </v>
    <v>       0.00291545 </v>
    <v>       0.00291545 </v>
    <v>       0.00145773 </v>
    <v>       0.00291545 </v>
    <v>       0.00583090 </v>
    <v>       0.00583090 </v>
    <v>       0.00583090 </v>
    <v>       0.00583090 </v>
    <v>       0.00291545 </v>
    <v>       0.00291545 </v>
    <v>       0.00291545 </v>
    <v>       0.00583090 </v>
    <v>       0.00583090 </v>
    <v>       0.00583090 </v>
    <v>       0.00583090 </v>
    <v>       0.00583090 </v>
    <v>       0.00583090 </v>
    <v>       0.00583090 </v>
    <v>       0.00291545 </v>
    <v>       0.00583090 </v>
    <v>       0.00291545 </v>
    <v>       0.00291545 </v>
    <v>       0.00583090 </v>
    <v>       0.00583090 </v>
    <v>       0.00583090 </v>
    <v>       0.00583090 </v>
    <v>       0.00583090 </v>
    <v>       0.00291545 </v>
    <v>       0.00583090 </v>
    <v>       0.00583090 </v>
    <v>       0.00291545 </v>
    <v>       0.00291545 </v>
    <v>       0.00583090 </v>
    <v>       0.00583090 </v>
    <v>       0.00583090 </v>
    <v>       0.00291545 </v>
    <v>       0.00583090 </v>
    <v>       0.00583090 </v>
    <v>       0.00583090 </v>
    <v>       0.00291545 </v>
    <v>       0.00291545 </v>
    <v>       0.00583090 </v>
    <v>       0.00291545 </v>
    <v>       0.00583090 </v>
    <v>       0.00583090 </v>
    <v>       0.00583090 </v>
    <v>       0.00583090 </v>
    <v>       0.00291545 </v>
    <v>       0.00145773 </v>
    <v>       0.00583090 </v>
    <v>       0.00583090 </v>
    <v>       0.00583090 </v>
    <v>       0.00583090 </v>
    <v>       0.00583090 </v>
    <v>       0.00145773 </v>
    <v>       0.00583090 </v>
    <v>       0.00583090 </v>
    <v>       0.00583090 </v>
    <v>       0.00583090 </v>
    <v>       0.00291545 </v>
    <v>       0.00583090 </v>
    <v>       0.00583090 </v>
    <v>       0.00583090 </v>
    <v>       0.00291545 </v>
    <v>       0.00583090 </v>
    <v>       0.00583090 </v>
    <v>       0.00291545 </v>
    <v>       0.00583090 </v>
    <v>       0.00291545 </v>
    <v>       0.00291545 </v>
    <v>       0.00072886 </v>
    <v>       0.00291545 </v>
    <v>       0.00291545 </v>
    <v>       0.00291545 </v>
    <v>       0.00291545 </v>
    <v>       0.00291545 </v>
    <v>       0.00291545 </v>
    <v>       0.00291545 </v>
    <v>       0.00291545 </v>
    <v>       0.00291545 </v>
    <v>       0.00145773 </v>
    <v>       0.00291545 </v>
    <v>       0.00583090 </v>
    <v>       0.00583090 </v>
    <v>       0.00291545 </v>
    <v>       0.00291545 </v>
    <v>       0.00291545 </v>
    <v>       0.00583090 </v>
    <v>       0.00583090 </v>
    <v>       0.00583090 </v>
    <v>       0.00291545 </v>
    <v>       0.00583090 </v>
    <v>       0.00291545 </v>
    <v>       0.00291545 </v>
    <v>       0.00583090 </v>
    <v>       0.00291545 </v>
    <v>       0.00583090 </v>
    <v>       0.00583090 </v>
    <v>       0.00291545 </v>
    <v>       0.00145773 </v>
    <v>       0.00583090 </v>
    <v>       0.00583090 </v>
    <v>       0.00583090 </v>
    <v>       0.00291545 </v>
    <v>       0.00583090 </v>
    <v>       0.00583090 </v>
    <v>       0.00583090 </v>
    <v>       0.00583090 </v>
    <v>       0.00145773 </v>
    <v>       0.00583090 </v>
    <v>       0.00583090 </v>
    <v>       0.00583090 </v>
    <v>       0.00291545 </v>
    <v>       0.00583090 </v>
    <v>       0.00583090 </v>
    <v>       0.00291545 </v>
    <v>       0.00583090 </v>
    <v>       0.00291545 </v>
    <v>       0.00291545 </v>
    <v>       0.00072886 </v>
    <v>       0.00291545 </v>
    <v>       0.00291545 </v>
    <v>       0.00291545 </v>
    <v>       0.00291545 </v>
    <v>       0.00291545 </v>
    <v>       0.00291545 </v>
    <v>       0.00291545 </v>
    <v>       0.00145773 </v>
    <v>       0.00291545 </v>
    <v>       0.00291545 </v>
    <v>       0.00291545 </v>
    <v>       0.00145773 </v>
    <v>       0.00583090 </v>
    <v>       0.00291545 </v>
    <v>       0.00583090 </v>
    <v>       0.00583090 </v>
    <v>       0.00291545 </v>
    <v>       0.00583090 </v>
    <v>       0.00583090 </v>
    <v>       0.00583090 </v>
    <v>       0.00145773 </v>
    <v>       0.00583090 </v>
    <v>       0.00583090 </v>
    <v>       0.00291545 </v>
    <v>       0.00583090 </v>
    <v>       0.00291545 </v>
    <v>       0.00291545 </v>
    <v>       0.00072886 </v>
    <v>       0.00291545 </v>
    <v>       0.00291545 </v>
    <v>       0.00291545 </v>
    <v>       0.00291545 </v>
    <v>       0.00291545 </v>
    <v>       0.00145773 </v>
    <v>       0.00291545 </v>
    <v>       0.00583090 </v>
    <v>       0.00291545 </v>
    <v>       0.00583090 </v>
    <v>       0.00583090 </v>
    <v>       0.00145773 </v>
    <v>       0.00583090 </v>
    <v>       0.00291545 </v>
    <v>       0.00291545 </v>
    <v>       0.00072886 </v>
    <v>       0.00291545 </v>
    <v>       0.00291545 </v>
    <v>       0.00291545 </v>
    <v>       0.00145773 </v>
    <v>       0.00291545 </v>
    <v>       0.00583090 </v>
    <v>       0.00145773 </v>
    <v>       0.00291545 </v>
    <v>       0.00072886 </v>
    <v>       0.00291545 </v>
    <v>       0.00145773 </v>
    <v>       0.00145773 </v>
    <v>       0.00036443 </v>
   </varray>
  </kpoints>
  <scstep>
   <time name="total">    0.54    0.90</time>
   <energy>
    <i name="e_fr_energy">     -0.01720836 </i>
    <i name="e_wo_entrp">     -0.01720836 </i>
    <i name="e_0_energy">     -0.01720836 </i>
   </energy>
  </scstep>
  <scstep>
   <time name="total">    0.58    0.99</time>
   <energy>
    <i name="e_fr_energy">     -0.01711351 </i>
    <i name="e_wo_entrp">     -0.01711351 </i>
    <i name="e_0_energy">     -0.01711351 </i>
   </energy>
  </scstep>
  <scstep>
   <time name="total">    0.57    0.98</time>
   <energy>
    <i name="e_fr_energy">     -0.01683530 </i>
    <i name="e_wo_entrp">     -0.01683530 </i>
    <i name="e_0_energy">     -0.01683530 </i>
   </energy>
  </scstep>
  <scstep>
   <time name="total">    0.62    1.05</time>
   <energy>
    <i name="e_fr_energy">     -0.01771562 </i>
    <i name="e_wo_entrp">     -0.01771562 </i>
    <i name="e_0_energy">     -0.01771562 </i>
   </energy>
  </scstep>
  <scstep>
   <time name="total">    0.60    1.00</time>
   <energy>
    <i name="e_fr_energy">     -0.01782754 </i>
    <i name="e_wo_entrp">     -0.01782754 </i>
    <i name="e_0_energy">     -0.01782754 </i>
   </energy>
  </scstep>
  <scstep>
   <time name="total">    0.61    1.02</time>
   <energy>
    <i name="e_fr_energy">     -0.01783890 </i>
    <i name="e_wo_entrp">     -0.01783890 </i>
    <i name="e_0_energy">     -0.01783890 </i>
   </energy>
  </scstep>
  <scstep>
   <time name="total">    0.66    1.11</time>
   <energy>
    <i name="e_fr_energy">     -0.01784000 </i>
    <i name="e_wo_entrp">     -0.01784000 </i>
    <i name="e_0_energy">     -0.01784000 </i>
   </energy>
  </scstep>
  <scstep>
   <time name="total">    0.68    1.15</time>
   <energy>
    <i name="e_fr_energy">     -0.01783971 </i>
    <i name="e_wo_entrp">     -0.01783971 </i>
    <i name="e_0_energy">     -0.01783971 </i>
   </energy>
  </scstep>
  <scstep>
   <time name="total">    0.69    1.17</time>
   <energy>
    <i name="e_fr_energy">     -0.01783972 </i>
    <i name="e_wo_entrp">     -0.01783972 </i>
    <i name="e_0_energy">     -0.01783972 </i>
   </energy>
  </scstep>
  <kpoints>
   <generation param="Gamma">
    <v type="int" name="divisions">      14       14       14 </v>
    <v name="usershift">      0.00000000       0.00000000       0.00000000 </v>
    <v name="genvec1">      0.07142857       0.00000000       0.00000000 </v>
    <v name="genvec2">      0.00000000       0.07142857      -0.00000000 </v>
    <v name="genvec3">     -0.00000000      -0.00000000       0.07142857 </v>
    <v name="shift">      0.00000000       0.00000000       0.00000000 </v>
   </generation>
   <varray name="kpointlist" >
    <v>       0.00000000       0.00000000       0.00000000 </v>
    <v>       0.07142857      -0.00000000      -0.00000000 </v>
    <v>       0.14285714       0.00000000       0.00000000 </v>
    <v>       0.21428571      -0.00000000      -0.00000000 </v>
    <v>       0.28571429       0.00000000       0.00000000 </v>
    <v>       0.35714286       0.00000000       0.00000000 </v>
    <v>       0.42857143      -0.00000000      -0.00000000 </v>
    <v>       0.50000000       0.00000000       0.00000000 </v>
    <v>       0.07142857       0.07142857      -0.00000000 </v>
    <v>       0.14285714       0.07142857      -0.00000000 </v>
    <v>       0.21428571       0.07142857       0.00000000 </v>
    <v>       0.28571429       0.07142857      -0.00000000 </v>
    <v>       0.35714286       0.07142857       0.00000000 </v>
    <v>       0.42857143       0.07142857       0.00000000 </v>
    <v>       0.50000000       0.07142857      -0.00000000 </v>
    <v>      -0.42857143       0.07142857      -0.00000000 </v>
    <v>      -0.35714286       0.07142857      -0.00000000 </v>
    <v>      -0.28571429       0.07142857       0.00000000 </v>
    <v>      -0.21428571       0.07142857      -0.00000000 </v>
    <v>      -0.14285714       0.07142857      -0.00000000 </v>
    <v>      -0.07142857       0.07142857       0.00000000 </v>
    <v>       0.14285714       0.14285714      -0.00000000 </v>
    <v>       0.21428571       0.14285714      -0.00000000 </v>
    <v>       0.28571429       0.14285714      -0.00000000 </v>
    <v>       0.35714286       0.14285714      -0.00000000 </v>
    <v>       0.42857143       0.14285714       0.00000000 </v>
    <v>       0.50000000       0.14285714      -0.00000000 </v>
    <v>      -0.42857143       0.14285714       0.00000000 </v>
    <v>      -0.35714286       0.14285714      -0.00000000 </v>
    <v>      -0.28571429       0.14285714       0.00000000 </v>
    <v>      -0.21428571       0.14285714      -0.00000000 </v>
    <v>      -0.14285714       0.14285714      -0.00000000 </v>
    <v>       0.21428571       0.21428571      -0.00000000 </v>
    <v>       0.28571429       0.21428571      -0.00000000 </v>
    <v>       0.35714286       0.21428571       0.00000000 </v>
    <v>       0.42857143       0.21428571       0.00000000 </v>
    <v>       0.50000000       0.21428571       0.00000000 </v>
    <v>      -0.42857143       0.21428571      -0.00000000 </v>
    <v>      -0.35714286       0.21428571      -0.00000000 </v>
    <v>      -0.28571429       0.21428571      -0.00000000 </v>
    <v>      -0.21428571       0.21428571       0.00000000 </v>
    <v>       0.28571429       0.28571429      -0.00000000 </v>
    <v>       0.35714286       0.28571429      -0.00000000 </v>
    <v>       0.42857143       0.28571429       0.00000000 </v>
    <v>       0.50000000       0.28571429       0.00000000 </v>
    <v>      -0.42857143       0.28571429      -0.00000000 </v>
    <v>      -0.35714286       0.28571429      -0.00000000 </v>
    <v>      -0.28571429       0.28571429      -0.00000000 </v>
    <v>       0.35714286       0.35714286      -0.00000000 </v>
    <v>       0.42857143       0.35714286      -0.00000000 </v>
    <v>       0.50000000       0.35714286      -0.00000000 </v>
    <v>      -0.42857143       0.35714286      -0.00000000 </v>
    <v>      -0.35714286       0.35714286      -0.00000000 </v>
    <v>       0.42857143       0.42857143      -0.00000000 </v>
    <v>       0.50000000       0.42857143      -0.00000000 </v>
    <v>      -0.42857143       0.42857143       0.00000000 </v>
    <v>       0.50000000       0.50000000      -0.00000000 </v>
    <v>       0.00000000       0.07142857       0.07142857 </v>
    <v>       0.14285714       0.07142857       0.07142857 </v>
    <v>       0.21428571       0.07142857       0.07142857 </v>
    <v>       0.28571429       0.07142857       0.07142857 </v>
    <v>       0.35714286       0.07142857       0.07142857 </v>
    <v>       0.42857143       0.07142857       0.07142857 </v>
    <v>       0.50000000       0.07142857       0.07142857 </v>
    <v>      -0.42857143       0.07142857       0.07142857 </v>
    <v>      -0.35714286       0.07142857       0.07142857 </v>
    <v>      -0.28571429       0.07142857       0.07142857 </v>
    <v>      -0.21428571       0.07142857       0.07142857 </v>
    <v>      -0.14285714       0.07142857       0.07142857 </v>
    <v>      -0.07142857       0.07142857       0.07142857 </v>
    <v>       0.21428571       0.14285714       0.07142857 </v>
    <v>       0.28571429       0.14285714       0.07142857 </v>
    <v>       0.35714286       0.14285714       0.07142857 </v>
    <v>       0.42857143       0.14285714       0.07142857 </v>
    <v>       0.50000000       0.14285714       0.07142857 </v>
    <v>      -0.42857143       0.14285714       0.07142857 </v>
    <v>      -0.35714286       0.14285714       0.07142857 </v>
    <v>      -0.28571429       0.14285714       0.07142857 </v>
    <v>      -0.21428571       0.14285714       0.07142857 </v>
    <v>      -0.14285714       0.14285714       0.07142857 </v>
    <v>      -0.07142857       0.14285714       0.07142857 </v>
    <v>       0.14285714       0.21428571       0.07142857 </v>
    <v>       0.28571429       0.21428571       0.07142857 </v>
    <v>       0.35714286       0.21428571       0.07142857 </v>
    <v>       0.42857143       0.21428571       0.07142857 </v>
    <v>       0.50000000       0.21428571       0.07142857 </v>
    <v>      -0.42857143       0.21428571       0.07142857 </v>
    <v>      -0.35714286       0.21428571       0.07142857 </v>
    <v>      -0.28571429       0.21428571       0.07142857 </v>
    <v>      -0.21428571       0.21428571       0.07142857 </v>
    <v>      -0.14285714       0.21428571       0.07142857 </v>
    <v>       0.14285714       0.28571429       0.07142857 </v>
    <v>       0.21428571       0.28571429       0.07142857 </v>
    <v>       0.35714286       0.28571429       0.07142857 </v>
    <v>       0.42857143       0.28571429       0.07142857 </v>
    <v>       0.50000000       0.28571429       0.07142857 </v>
    <v>      -0.42857143       0.28571429       0.07142857 </v>
    <v>      -0.35714286       0.28571429       0.07142857 </v>
    <v>      -0.28571429       0.28571429       0.07142857 </v>
    <v>      -0.21428571       0.28571429       0.07142857 </v>
    <v>       0.14285714       0.35714286       0.07142857 </v>
    <v>       0.21428571       0.35714286       0.07142857 </v>
    <v>       0.28571429       0.35714286       0.07142857 </v>
    <v>       0.42857143       0.35714286       0.07142857 </v>
    <v>       0.50000000       0.35714286       0.07142857 </v>
    <v>      -0.42857143       0.35714286       0.07142857 </v>
    <v>      -0.35714286       0.35714286       0.07142857 </v>
    <v>      -0.28571429       0.35714286       0.07142857 </v>
    <v>       0.14285714       0.42857143       0.07142857 </v>
    <v>       0.21428571       0.42857143       0.07142857 </v>
    <v>       0.28571429       0.42857143       0.07142857 </v>
    <v>       0.35714286       0.42857143       0.07142857 </v>
    <v>       0.50000000       0.42857143       0.07142857 </v>
    <v>      -0.42857143       0.42857143       0.07142857 </v>
    <v>      -0.35714286       0.42857143       0.07142857 </v>
    <v>       0.14285714       0.50000000       0.07142857 </v>
    <v>       0.21428571       0.50000000       0.07142857 </v>
    <v>       0.28571429       0.50000000       0.07142857 </v>
    <v>       0.35714286       0.50000000       0.07142857 </v>
    <v>       0.42857143       0.50000000       0.07142857 </v>
    <v>      -0.42857143       0.50000000       0.07142857 </v>
    <v>       0.14285714      -0.42857143       0.07142857 </v>
    <v>       0.21428571      -0.42857143       0.07142857 </v>
    <v>       0.28571429      -0.42857143       0.07142857 </v>
    <v>       0.35714286      -0.42857143       0.07142857 </v>
    <v>       0.42857143      -0.42857143       0.07142857 </v>
    <v>       0.50000000      -0.42857143       0.07142857 </v>
    <v>       0.21428571      -0.35714286       0.07142857 </v>
    <v>       0.28571429      -0.35714286       0.07142857 </v>
    <v>       0.35714286      -0.35714286       0.07142857 </v>
    <v>       0.42857143      -0.35714286       0.07142857 </v>
    <v>       0.21428571      -0.28571429       0.07142857 </v>
    <v>       0.28571429      -0.28571429       0.07142857 </v>
    <v>       0.35714286      -0.28571429       0.07142857 </v>
    <v>       0.21428571      -0.21428571       0.07142857 </v>
    <v>       0.28571429      -0.21428571       0.07142857 </v>
    <v>       0.21428571      -0.14285714       0.07142857 </v>
    <v>       0.00000000       0.14285714       0.14285714 </v>
    <v>       0.28571429       0.14285714       0.14285714 </v>
    <v>       0.35714286       0.14285714       0.14285714 </v>
    <v>       0.42857143       0.14285714       0.14285714 </v>
    <v>       0.50000000       0.14285714       0.14285714 </v>
    <v>      -0.42857143       0.14285714       0.14285714 </v>
    <v>      -0.35714286       0.14285714       0.14285714 </v>
    <v>      -0.28571429       0.14285714       0.14285714 </v>
    <v>      -0.21428571       0.14285714       0.14285714 </v>
    <v>      -0.14285714       0.14285714       0.14285714 </v>
    <v>      -0.07142857       0.14285714       0.14285714 </v>
    <v>       0.35714286       0.21428571       0.14285714 </v>
    <v>       0.42857143       0.21428571       0.14285714 </v>
    <v>       0.50000000       0.21428571       0.14285714 </v>
    <v>      -0.42857143       0.21428571       0.14285714 </v>
    <v>      -0.35714286       0.21428571       0.14285714 </v>
    <v>      -0.28571429       0.21428571       0.14285714 </v>
    <v>      -0.21428571       0.21428571       0.14285714 </v>
    <v>      -0.14285714       0.21428571       0.14285714 </v>
    <v>      -0.07142857       0.21428571       0.14285714 </v>
    <v>       0.42857143       0.28571429       0.14285714 </v>
    <v>       0.50000000       0.28571429       0.14285714 </v>
    <v>      -0.42857143       0.28571429       0.14285714 </v>
    <v>      -0.35714286       0.28571429       0.14285714 </v>
    <v>      -0.28571429       0.28571429       0.14285714 </v>
    <v>      -0.21428571       0.28571429       0.14285714 </v>
    <v>      -0.14285714       0.28571429       0.14285714 </v>
    <v>       0.50000000       0.35714286       0.14285714 </v>
    <v>      -0.42857143       0.35714286       0.14285714 </v>
    <v>      -0.35714286       0.35714286       0.14285714 </v>
    <v>      -0.28571429       0.35714286       0.14285714 </v>
    <v>      -0.21428571       0.35714286       0.14285714 </v>
    <v>       0.28571429       0.42857143       0.14285714 </v>
    <v>      -0.42857143       0.42857143       0.14285714 </v>
    <v>      -0.35714286       0.42857143       0.14285714 </v>
    <v>      -0.28571429       0.42857143       0.14285714 </v>
    <v>       0.28571429       0.50000000       0.14285714 </v>
    <v>       0.35714286       0.50000000       0.14285714 </v>
    <v>      -0.35714286       0.50000000       0.14285714 </v>
    <v>       0.28571429      -0.42857143       0.14285714 </v>
    <v>       0.35714286      -0.42857143       0.14285714 </v>
    <v>       0.42857143      -0.42857143       0.14285714 </v>
    <v>       0.28571429      -0.35714286       0.14285714 </v>
    <v>       0.35714286      -0.35714286       0.14285714 </v>
    <v>       0.42857143      -0.35714286       0.14285714 </v>
    <v>       0.50000000      -0.35714286       0.14285714 </v>
    <v>       0.35714286      -0.28571429       0.14285714 </v>
    <v>       0.42857143      -0.28571429       0.14285714 </v>
    <v>       0.35714286      -0.21428571       0.14285714 </v>
    <v>       0.00000000       0.21428571       0.21428571 </v>
    <v>       0.42857143       0.21428571       0.21428571 </v>
    <v>       0.50000000       0.21428571       0.21428571 </v>
    <v>      -0.42857143       0.21428571       0.21428571 </v>
    <v>      -0.35714286       0.21428571       0.21428571 </v>
    <v>      -0.28571429       0.21428571       0.21428571 </v>
    <v>      -0.21428571       0.21428571       0.21428571 </v>
    <v>      -0.14285714       0.21428571       0.21428571 </v>
    <v>      -0.07142857       0.21428571       0.21428571 </v>
    <v>       0.50000000       0.28571429       0.21428571 </v>
    <v>      -0.42857143       0.28571429       0.21428571 </v>
    <v>      -0.35714286       0.28571429       0.21428571 </v>
    <v>      -0.28571429       0.28571429       0.21428571 </v>
    <v>      -0.21428571       0.28571429       0.21428571 </v>
    <v>      -0.14285714       0.28571429       0.21428571 </v>
    <v>      -0.07142857       0.28571429       0.21428571 </v>
    <v>      -0.42857143       0.35714286       0.21428571 </v>
    <v>      -0.35714286       0.35714286       0.21428571 </v>
    <v>      -0.28571429       0.35714286       0.21428571 </v>
    <v>      -0.21428571       0.35714286       0.21428571 </v>
    <v>      -0.14285714       0.35714286       0.21428571 </v>
    <v>      -0.35714286       0.42857143       0.21428571 </v>
    <v>      -0.28571429       0.42857143       0.21428571 </v>
    <v>      -0.21428571       0.42857143       0.21428571 </v>
    <v>      -0.28571429       0.50000000       0.21428571 </v>
    <v>       0.42857143      -0.35714286       0.21428571 </v>
    <v>       0.42857143      -0.28571429       0.21428571 </v>
    <v>       0.50000000      -0.28571429       0.21428571 </v>
    <v>       0.00000000       0.28571429       0.28571429 </v>
    <v>      -0.42857143       0.28571429       0.28571429 </v>
    <v>      -0.35714286       0.28571429       0.28571429 </v>
    <v>      -0.28571429       0.28571429       0.28571429 </v>
    <v>      -0.21428571       0.28571429       0.28571429 </v>
    <v>      -0.14285714       0.28571429       0.28571429 </v>
    <v>      -0.07142857       0.28571429       0.28571429 </v>
    <v>      -0.35714286       0.35714286       0.28571429 </v>
    <v>      -0.28571429       0.35714286       0.28571429 </v>
    <v>      -0.21428571       0.35714286       0.28571429 </v>
    <v>      -0.14285714       0.35714286       0.28571429 </v>
    <v>      -0.07142857       0.35714286       0.28571429 </v>
    <v>      -0.28571429       0.42857143       0.28571429 </v>
    <v>      -0.21428571       0.42857143       0.28571429 </v>
    <v>      -0.14285714       0.42857143       0.28571429 </v>
    <v>      -0.21428571       0.50000000       0.28571429 </v>
    <v>       0.00000000       0.35714286       0.35714286 </v>
    <v>      -0.28571429       0.35714286       0.35714286 </v>
    <v>      -0.21428571       0.35714286       0.35714286 </v>
    <v>      -0.14285714       0.35714286       0.35714286 </v>
    <v>      -0.07142857       0.35714286       0.35714286 </v>
    <v>      -0.21428571       0.42857143       0.35714286 </v>
    <v>      -0.14285714       0.42857143       0.35714286 </v>
    <v>      -0.07142857       0.42857143       0.35714286 </v>
    <v>      -0.14285714       0.50000000       0.35714286 </v>
    <v>       0.00000000       0.42857143       0.42857143 </v>
    <v>      -0.14285714       0.42857143       0.42857143 </v>
    <v>      -0.07142857       0.42857143       0.42857143 </v>
    <v>      -0.07142857       0.50000000       0.42857143 </v>
    <v>       0.00000000       0.50000000       0.50000000 </v>
   </varray>
   <varray name="weights" >
    <v>       0.00036443 </v>
    <v>       0.00291545 </v>
    <v>       0.00291545 </v>
    <v>       0.00291545 </v>
    <v>       0.00291545 </v>
    <v>       0.00291545 </v>
    <v>       0.00291545 </v>
    <v>       0.00145773 </v>
    <v>       0.00145773 </v>
    <v>       0.00583090 </v>
    <v>       0.00583090 </v>
    <v>       0.00583090 </v>
    <v>       0.00583090 </v>
    <v>       0.00583090 </v>
    <v>       0.00583090 </v>
    <v>       0.00583090 </v>
    <v>       0.00583090 </v>
    <v>       0.00583090 </v>
    <v>       0.00583090 </v>
    <v>       0.00583090 </v>
    <v>       0.00291545 </v>
    <v>       0.00145773 </v>
    <v>       0.00583090 </v>
    <v>       0.00583090 </v>
    <v>       0.00583090 </v>
    <v>       0.00583090 </v>
    <v>       0.00583090 </v>
    <v>       0.00583090 </v>
    <v>       0.00583090 </v>
    <v>       0.00583090 </v>
    <v>       0.00583090 </v>
    <v>       0.00291545 </v>
    <v>       0.00145773 </v>
    <v>       0.00583090 </v>
    <v>       0.00583090 </v>
    <v>       0.00583090 </v>
    <v>       0.00583090 </v>
    <v>       0.00583090 </v>
    <v>       0.00583090 </v>
    <v>       0.00583090 </v>
    <v>       0.00291545 </v>
    <v>       0.00145773 </v>
    <v>       0.00583090 </v>
    <v>       0.00583090 </v>
    <v>       0.00583090 </v>
    <v>       0.00583090 </v>
    <v>       0.00583090 </v>
    <v>       0.00291545 </v>
    <v>       0.00145773 </v>
    <v>       0.00583090 </v>
    <v>       0.00583090 </v>
    <v>       0.00583090 </v>
    <v>       0.00291545 </v>
    <v>       0.00145773 </v>
    <v>       0.00583090 </v>
    <v>       0.00291545 </v>
    <v>       0.00072886 </v>
    <v>       0.00072886 </v>
    <v>       0.00145773 </v>
    <v>       0.00291545 </v>
    <v>       0.00291545 </v>
    <v>       0.00291545 </v>
    <v>       0.00291545 </v>
    <v>       0.00291545 </v>
    <v>       0.00291545 </v>
    <v>       0.00291545 </v>
    <v>       0.00291545 </v>
    <v>       0.00291545 </v>
    <v>       0.00291545 </v>
    <v>       0.00291545 </v>
    <v>       0.00291545 </v>
    <v>       0.00583090 </v>
    <v>       0.00583090 </v>
    <v>       0.00583090 </v>
    <v>       0.00583090 </v>
    <v>       0.00583090 </v>
    <v>       0.00583090 </v>
    <v>       0.00583090 </v>
    <v>       0.00583090 </v>
    <v>       0.00583090 </v>
    <v>       0.00291545 </v>
    <v>       0.00291545 </v>
    <v>       0.00291545 </v>
    <v>       0.00583090 </v>
    <v>       0.00583090 </v>
    <v>       0.00583090 </v>
    <v>       0.00583090 </v>
    <v>       0.00583090 </v>
    <v>       0.00583090 </v>
    <v>       0.00583090 </v>
    <v>       0.00291545 </v>
    <v>       0.00583090 </v>
    <v>       0.00291545 </v>
    <v>       0.00291545 </v>
    <v>       0.00583090 </v>
    <v>       0.00583090 </v>
    <v>       0.00583090 </v>
    <v>       0.00583090 </v>
    <v>       0.00583090 </v>
    <v>       0.00291545 </v>
    <v>       0.00583090 </v>
    <v>       0.00583090 </v>
    <v>       0.00291545 </v>
    <v>       0.00291545 </v>
    <v>       0.00583090 </v>
    <v>       0.00583090 </v>
    <v>       0.00583090 </v>
    <v>       0.00291545 </v>
    <v>       0.00583090 </v>
    <v>       0.00583090 </v>
    <v>       0.00583090 </v>
    <v>       0.00291545 </v>
    <v>       0.00291545 </v>
    <v>       0.00583090 </v>
    <v>       0.00291545 </v>
    <v>       0.00583090 </v>
    <v>       0.00583090 </v>
[...]
      <set comment="kpoint 93">
       <r>  -32.9155    1.0000 </r>
       <r>  -10.2305    1.0000 </r>
       <r>   -9.8172    1.0000 </r>
       <r>   -9.6854    1.0000 </r>
       <r>    7.5875    0.0000 </r>
       <r>   13.6628    0.0000 </r>
       <r>   14.0248    0.0000 </r>
       <r>   18.3853    0.0000 </r>
      </set>
      <set comment="kpoint 94">
       <r>  -32.9009    1.0000 </r>
       <r>  -10.2294    1.0000 </r>
       <r>   -9.8982    1.0000 </r>
       <r>   -9.7129    1.0000 </r>
       <r>    8.6850    0.0000 </r>
       <r>   12.4161    0.0000 </r>
       <r>   13.6244    0.0000 </r>
       <r>   17.8004    0.0000 </r>
      </set>
      <set comment="kpoint 95">
       <r>  -32.8942    1.0000 </r>
       <r>  -10.2010    1.0000 </r>
       <r>   -9.9717    1.0000 </r>
       <r>   -9.7192    1.0000 </r>
       <r>    9.7433    0.0000 </r>
       <r>   11.2525    0.0000 </r>
       <r>   13.4224    0.0000 </r>
       <r>   17.5895    0.0000 </r>
      </set>
      <set comment="kpoint 96">
       <r>  -32.8966    1.0000 </r>
       <r>  -10.1811    1.0000 </r>
       <r>   -9.9957    1.0000 </r>
       <r>   -9.7006    1.0000 </r>
       <r>    9.4273    0.0000 </r>
       <r>   11.6468    0.0000 </r>
       <r>   13.2658    0.0000 </r>
       <r>   17.7891    0.0000 </r>
      </set>
      <set comment="kpoint 97">
       <r>  -32.9077    1.0000 </r>
       <r>  -10.2044    1.0000 </r>
       <r>   -9.9290    1.0000 </r>
       <r>   -9.6656    1.0000 </r>
       <r>    8.3234    0.0000 </r>
       <r>   12.7619    0.0000 </r>
       <r>   13.4794    0.0000 </r>
       <r>   18.3270    0.0000 </r>
      </set>
      <set comment="kpoint 98">
       <r>  -32.8933    1.0000 </r>
       <r>  -10.2580    1.0000 </r>
       <r>   -9.8678    1.0000 </r>
       <r>   -9.7599    1.0000 </r>
       <r>    9.0855    0.0000 </r>
       <r>   12.4363    0.0000 </r>
       <r>   13.2693    0.0000 </r>
       <r>   17.5725    0.0000 </r>
      </set>
      <set comment="kpoint 99">
       <r>  -32.8876    1.0000 </r>
       <r>  -10.2055    1.0000 </r>
       <r>   -9.9565    1.0000 </r>
       <r>   -9.7696    1.0000 </r>
       <r>   10.0856    0.0000 </r>
       <r>   11.7347    0.0000 </r>
       <r>   12.7069    0.0000 </r>
       <r>   17.1092    0.0000 </r>
      </set>
      <set comment="kpoint 100">
       <r>  -32.8888    1.0000 </r>
       <r>  -10.1190    1.0000 </r>
       <r>  -10.0657    1.0000 </r>
       <r>   -9.7447    1.0000 </r>
       <r>   10.2581    0.0000 </r>
       <r>   11.7577    0.0000 </r>
       <r>   12.3184    0.0000 </r>
       <r>   17.2204    0.0000 </r>
      </set>
      <set comment="kpoint 101">
       <r>  -32.8853    1.0000 </r>
       <r>  -10.2627    1.0000 </r>
       <r>   -9.8858    1.0000 </r>
       <r>   -9.7901    1.0000 </r>
       <r>   10.2873    0.0000 </r>
       <r>   11.2099    0.0000 </r>
       <r>   13.1383    0.0000 </r>
       <r>   17.2943    0.0000 </r>
      </set>
      <set comment="kpoint 102">
       <r>  -32.8910    1.0000 </r>
       <r>  -10.1692    1.0000 </r>
       <r>   -9.9876    1.0000 </r>
       <r>   -9.7564    1.0000 </r>
       <r>    9.6980    0.0000 </r>
       <r>   12.4172    0.0000 </r>
       <r>   12.4442    0.0000 </r>
       <r>   16.9672    0.0000 </r>
      </set>
      <set comment="kpoint 103">
       <r>  -32.8875    1.0000 </r>
       <r>  -10.1121    1.0000 </r>
       <r>  -10.0516    1.0000 </r>
       <r>   -9.7755    1.0000 </r>
       <r>   10.3808    0.0000 </r>
       <r>   11.6957    0.0000 </r>
       <r>   12.4572    0.0000 </r>
       <r>   16.6536    0.0000 </r>
      </set>
      <set comment="kpoint 104">
       <r>  -32.8851    1.0000 </r>
       <r>  -10.1430    1.0000 </r>
       <r>  -10.0084    1.0000 </r>
       <r>   -9.8018    1.0000 </r>
       <r>   10.6623    0.0000 </r>
       <r>   11.6564    0.0000 </r>
       <r>   12.3032    0.0000 </r>
       <r>   16.4382    0.0000 </r>
      </set>
     </set>
    </set>
   </array>
  </eigenvalues>
  <separator name="orbital magnetization" >
   <v name="MAGDIPOLOUT">      0.00000000      0.00000000      0.00000000</v>
  </separator>
  <dos>
   <i name="efermi">     -9.39162425 </i>
   <total>
    <array>
     <dimension dim="1">gridpoints</dimension>
     <dimension dim="2">spin</dimension>
     <field>energy</field>
     <field>total</field>
     <field>integrated</field>
     <set>
      <set comment="spin 1">
       <r>   -35.8969     0.0000     0.0000 </r>
       <r>   -35.6906     0.0000     0.0000 </r>
       <r>   -35.4843     0.0000     0.0000 </r>
       <r>   -35.2781     0.0000     0.0000 </r>
       <r>   -35.0718     0.0000     0.0000 </r>
       <r>   -34.8655     0.0000     0.0000 </r>
       <r>   -34.6593     0.0000     0.0000 </r>
       <r>   -34.4530     0.0000     0.0000 </r>
       <r>   -34.2467     0.0000     0.0000 </r>
       <r>   -34.0405     0.0000     0.0000 </r>
       <r>   -33.8342     0.0000     0.0000 </r>
       <r>   -33.6279     0.0000     0.0000 </r>
       <r>   -33.4217     0.0000     0.0000 </r>
       <r>   -33.2154     0.0000     0.0000 </r>
       <r>   -33.0091     0.8010     0.1652 </r>
       <r>   -32.8029     0.0000     2.0000 </r>
       <r>   -32.5966     0.0000     2.0000 </r>
       <r>   -32.3903     0.0000     2.0000 </r>
       <r>   -32.1841     0.0000     2.0000 </r>
       <r>   -31.9778     0.0000     2.0000 </r>
       <r>   -31.7715     0.0000     2.0000 </r>
       <r>   -31.5653     0.0000     2.0000 </r>
       <r>   -31.3590     0.0000     2.0000 </r>
       <r>   -31.1527     0.0000     2.0000 </r>
       <r>   -30.9465     0.0000     2.0000 </r>
       <r>   -30.7402     0.0000     2.0000 </r>
       <r>   -30.5339     0.0000     2.0000 </r>
       <r>   -30.3277     0.0000     2.0000 </r>
       <r>   -30.1214     0.0000     2.0000 </r>
       <r>   -29.9151     0.0000     2.0000 </r>
       <r>   -29.7089     0.0000     2.0000 </r>
       <r>   -29.5026     0.0000     2.0000 </r>
       <r>   -29.2963     0.0000     2.0000 </r>
       <r>   -29.0901     0.0000     2.0000 </r>
       <r>   -28.8838     0.0000     2.0000 </r>
       <r>   -28.6775     0.0000     2.0000 </r>
       <r>   -28.4713     0.0000     2.0000 </r>
       <r>   -28.2650     0.0000     2.0000 </r>
       <r>   -28.0587     0.0000     2.0000 </r>
       <r>   -27.8525     0.0000     2.0000 </r>
       <r>   -27.6462     0.0000     2.0000 </r>
       <r>   -27.4399     0.0000     2.0000 </r>
       <r>   -27.2337     0.0000     2.0000 </r>
       <r>   -27.0274     0.0000     2.0000 </r>
       <r>   -26.8211     0.0000     2.0000 </r>
       <r>   -26.6149     0.0000     2.0000 </r>
       <r>   -26.4086     0.0000     2.0000 </r>
       <r>   -26.2023     0.0000     2.0000 </r>
       <r>   -25.9961     0.0000     2.0000 </r>
       <r>   -25.7898     0.0000     2.0000 </r>
       <r>   -25.5835     0.0000     2.0000 </r>
       <r>   -25.3773     0.0000     2.0000 </r>
       <r>   -25.1710     0.0000     2.0000 </r>
       <r>   -24.9647     0.0000     2.0000 </r>
       <r>   -24.7585     0.0000     2.0000 </r>
       <r>   -24.5522     0.0000     2.0000 </r>
       <r>   -24.3459     0.0000     2.0000 </r>
       <r>   -24.1397     0.0000     2.0000 </r>
       <r>   -23.9334     0.0000     2.0000 </r>
       <r>   -23.7271     0.0000     2.0000 </r>
       <r>   -23.5209     0.0000     2.0000 </r>
       <r>   -23.3146     0.0000     2.0000 </r>
       <r>   -23.1083     0.0000     2.0000 </r>
       <r>   -22.9021     0.0000     2.0000 </r>
       <r>   -22.6958     0.0000     2.0000 </r>
       <r>   -22.4895     0.0000     2.0000 </r>
       <r>   -22.2833     0.0000     2.0000 </r>
       <r>   -22.0770     0.0000     2.0000 </r>
       <r>   -21.8707     0.0000     2.0000 </r>
       <r>   -21.6645     0.0000     2.0000 </r>
       <r>   -21.4582     0.0000     2.0000 </r>
       <r>   -21.2519     0.0000     2.0000 </r>
       <r>   -21.0457     0.0000     2.0000 </r>
       <r>   -20.8394     0.0000     2.0000 </r>
       <r>   -20.6331     0.0000     2.0000 </r>
       <r>   -20.4269     0.0000     2.0000 </r>
       <r>   -20.2206     0.0000     2.0000 </r>
       <r>   -20.0143     0.0000     2.0000 </r>
       <r>   -19.8081     0.0000     2.0000 </r>
       <r>   -19.6018     0.0000     2.0000 </r>
       <r>   -19.3955     0.0000     2.0000 </r>
       <r>   -19.1893     0.0000     2.0000 </r>
       <r>   -18.9830     0.0000     2.0000 </r>
       <r>   -18.7767     0.0000     2.0000 </r>
       <r>   -18.5705     0.0000     2.0000 </r>
       <r>   -18.3642     0.0000     2.0000 </r>
       <r>   -18.1579     0.0000     2.0000 </r>
       <r>   -17.9517     0.0000     2.0000 </r>
       <r>   -17.7454     0.0000     2.0000 </r>
       <r>   -17.5391     0.0000     2.0000 </r>
       <r>   -17.3329     0.0000     2.0000 </r>
       <r>   -17.1266     0.0000     2.0000 </r>
       <r>   -16.9203     0.0000     2.0000 </r>
       <r>   -16.7141     0.0000     2.0000 </r>
       <r>   -16.5078     0.0000     2.0000 </r>
       <r>   -16.3015     0.0000     2.0000 </r>
       <r>   -16.0953     0.0000     2.0000 </r>
       <r>   -15.8890     0.0000     2.0000 </r>
       <r>   -15.6827     0.0000     2.0000 </r>
       <r>   -15.4765     0.0000     2.0000 </r>
       <r>   -15.2702     0.0000     2.0000 </r>
       <r>   -15.0639     0.0000     2.0000 </r>
       <r>   -14.8577     0.0000     2.0000 </r>
       <r>   -14.6514     0.0000     2.0000 </r>
       <r>   -14.4452     0.0000     2.0000 </r>
       <r>   -14.2389     0.0000     2.0000 </r>
       <r>   -14.0326     0.0000     2.0000 </r>
       <r>   -13.8264     0.0000     2.0000 </r>
       <r>   -13.6201     0.0000     2.0000 </r>
       <r>   -13.4138     0.0000     2.0000 </r>
       <r>   -13.2076     0.0000     2.0000 </r>
       <r>   -13.0013     0.0000     2.0000 </r>
       <r>   -12.7950     0.0000     2.0000 </r>
       <r>   -12.5888     0.0000     2.0000 </r>
       <r>   -12.3825     0.0000     2.0000 </r>
       <r>   -12.1762     0.0000     2.0000 </r>
       <r>   -11.9700     0.0000     2.0000 </r>
       <r>   -11.7637     0.0000     2.0000 </r>
       <r>   -11.5574     0.0000     2.0000 </r>
       <r>   -11.3512     0.0000     2.0000 </r>
       <r>   -11.1449     0.0000     2.0000 </r>
       <r>   -10.9386     0.0000     2.0000 </r>
       <r>   -10.7324     0.0000     2.0000 </r>
       <r>   -10.5261     0.0000     2.0000 </r>
       <r>   -10.3198     1.2154     2.3294 </r>
       <r>   -10.1136     1.4578     3.6207 </r>
       <r>    -9.9073     1.5031     4.2787 </r>
       <r>    -9.7010     3.9159     5.6875 </r>
       <r>    -9.4948     3.2446     7.8813 </r>
       <r>    -9.2885     0.0000     8.0000 </r>
       <r>    -9.0822     0.0000     8.0000 </r>
       <r>    -8.8760     0.0000     8.0000 </r>
       <r>    -8.6697     0.0000     8.0000 </r>
       <r>    -8.4634     0.0000     8.0000 </r>
       <r>    -8.2572     0.0000     8.0000 </r>
       <r>    -8.0509     0.0000     8.0000 </r>
       <r>    -7.8446     0.0000     8.0000 </r>
       <r>    -7.6384     0.0000     8.0000 </r>
       <r>    -7.4321     0.0000     8.0000 </r>
       <r>    -7.2258     0.0000     8.0000 </r>
       <r>    -7.0196     0.0000     8.0000 </r>
       <r>    -6.8133     0.0000     8.0000 </r>
       <r>    -6.6070     0.0000     8.0000 </r>
       <r>    -6.4008     0.0000     8.0000 </r>
       <r>    -6.1945     0.0000     8.0000 </r>
       <r>    -5.9882     0.0000     8.0000 </r>
       <r>    -5.7820     0.0000     8.0000 </r>
       <r>    -5.5757     0.0000     8.0000 </r>
       <r>    -5.3694     0.0000     8.0000 </r>
       <r>    -5.1632     0.0000     8.0000 </r>
       <r>    -4.9569     0.0000     8.0000 </r>
       <r>    -4.7506     0.0000     8.0000 </r>
       <r>    -4.5444     0.0000     8.0000 </r>
       <r>    -4.3381     0.0000     8.0000 </r>
       <r>    -4.1318     0.0000     8.0000 </r>
       <r>    -3.9256     0.0000     8.0000 </r>
       <r>    -3.7193     0.0000     8.0000 </r>
       <r>    -3.5130     0.0000     8.0000 </r>
       <r>    -3.3068     0.0000     8.0000 </r>
       <r>    -3.1005     0.0000     8.0000 </r>
       <r>    -2.8942     0.0000     8.0000 </r>
       <r>    -2.6880     0.0000     8.0000 </r>
       <r>    -2.4817     0.0000     8.0000 </r>
       <r>    -2.2754     0.0000     8.0000 </r>
       <r>    -2.0692     0.0000     8.0000 </r>
       <r>    -1.8629     0.0000     8.0000 </r>
       <r>    -1.6566     0.0000     8.0000 </r>
       <r>    -1.4504     0.0000     8.0000 </r>
       <r>    -1.2441     0.0000     8.0000 </r>
       <r>    -1.0378     0.0000     8.0000 </r>
       <r>    -0.8316     0.0000     8.0000 </r>
       <r>    -0.6253     0.0000     8.0000 </r>
       <r>    -0.4190     0.0000     8.0000 </r>
       <r>    -0.2128     0.0000     8.0000 </r>
       <r>    -0.0065     0.0000     8.0000 </r>
       <r>     0.1998     0.0000     8.0000 </r>
       <r>     0.4060     0.0000     8.0000 </r>
       <r>     0.6123     0.0000     8.0000 </r>
       <r>     0.8186     0.0000     8.0000 </r>
       <r>     1.0248     0.0000     8.0000 </r>
       <r>     1.2311     0.0000     8.0000 </r>
       <r>     1.4374     0.0000     8.0000 </r>
       <r>     1.6436     0.0000     8.0000 </r>
       <r>     1.8499     0.0000     8.0000 </r>
       <r>     2.0562     0.0000     8.0000 </r>
       <r>     2.2624     0.0000     8.0000 </r>
       <r>     2.4687     0.0035     8.0007 </r>
       <r>     2.6750     0.0212     8.0109 </r>
       <r>     2.8812     0.0424     8.0197 </r>
       <r>     3.0875     0.0283     8.0430 </r>
       <r>     3.2938     0.0212     8.0474 </r>
       <r>     3.5000     0.0848     8.0824 </r>
       <r>     3.7063     0.0848     8.0999 </r>
       <r>     3.9126     0.0000     8.1232 </r>
       <r>     4.1188     0.0424     8.1319 </r>
       <r>     4.3251     0.1060     8.1888 </r>
       <r>     4.5314     0.0000     8.2063 </r>
       <r>     4.7376     0.0000     8.2413 </r>
       <r>     4.9439     0.0664     8.2608 </r>
       <r>     5.1502     0.0001     8.2996 </r>
       <r>     5.3564     0.2544     8.3870 </r>
       <r>     5.5627     0.0212     8.3914 </r>
       <r>     5.7690     0.0848     8.4439 </r>
       <r>     5.9752     0.0005     8.4702 </r>
       <r>     6.1815     0.0014     8.5287 </r>
       <r>     6.3878     0.3392     8.6334 </r>
       <r>     6.5940     0.0848     8.6509 </r>
       <r>     6.8003     0.0000     8.6859 </r>
       <r>     7.0066     0.3079     8.7669 </r>
       <r>     7.2128     0.1696     8.8302 </r>
       <r>     7.4191     0.0000     8.9060 </r>
       <r>     7.6254     0.2995     8.9678 </r>
       <r>     7.8316     0.0848     9.0459 </r>
       <r>     8.0379     0.0005     9.0635 </r>
       <r>     8.2441     0.2544     9.1946 </r>
       <r>     8.4504     0.2493     9.2635 </r>
       <r>     8.6567     0.1337     9.3490 </r>
       <r>     8.8629     0.1955     9.4346 </r>
       <r>     9.0692     0.0009     9.5024 </r>
       <r>     9.2755     0.3392     9.6071 </r>
       <r>     9.4817     0.3392     9.7471 </r>
       <r>     9.6880     0.1762     9.8009 </r>
       <r>     9.8943     0.0982     9.8920 </r>
       <r>    10.1005     0.4439    10.0420 </r>
       <r>    10.3068     0.2401    10.1049 </r>
       <r>    10.5131     0.0000    10.1574 </r>
       <r>    10.7193     0.2118    10.2361 </r>
       <r>    10.9256     0.0106    10.2733 </r>
       <r>    11.1319     0.2544    10.3608 </r>
       <r>    11.3381     0.3480    10.4938 </r>
       <r>    11.5444     0.2537    10.5968 </r>
       <r>    11.7507     0.2659    10.7917 </r>
       <r>    11.9569     0.2543    10.8593 </r>
       <r>    12.1632     0.4020    10.9597 </r>
       <r>    12.3695     0.2544    11.0445 </r>
       <r>    12.5757     0.1703    11.2195 </r>
       <r>    12.7820     0.3392    11.3156 </r>
       <r>    12.9883     0.0000    11.4206 </r>
       <r>    13.1945     0.0424    11.5168 </r>
       <r>    13.4008     0.3394    11.6917 </r>
       <r>    13.6071     0.1279    11.8318 </r>
       <r>    13.8133     0.1000    11.9397 </r>
       <r>    14.0196     0.1891    12.0106 </r>
       <r>    14.2259     0.4580    12.2031 </r>
       <r>    14.4321     0.0000    12.2792 </r>
       <r>    14.6384     0.1647    12.3678 </r>
       <r>    14.8447     0.1719    12.4786 </r>
       <r>    15.0509     0.2180    12.6106 </r>
       <r>    15.2572     0.1887    12.6920 </r>
       <r>    15.4635     0.3392    12.7624 </r>
       <r>    15.6697     0.1696    12.8324 </r>
       <r>    15.8760     0.0424    12.8411 </r>
       <r>    16.0823     0.2184    12.9561 </r>
       <r>    16.2885     0.3437    13.0971 </r>
       <r>    16.4948     0.1696    13.1487 </r>
       <r>    16.7011     0.2544    13.2055 </r>
       <r>    16.9073     0.0000    13.2405 </r>
       <r>    17.1136     0.3030    13.3380 </r>
       <r>    17.3199     0.1484    13.4461 </r>
       <r>    17.5261     0.0855    13.4812 </r>
       <r>    17.7324     0.3675    13.6268 </r>
       <r>    17.9387     0.1687    13.7607 </r>
       <r>    18.1449     0.0012    13.7612 </r>
       <r>    18.3512     0.3899    13.9172 </r>
       <r>    18.5575     0.4664    14.0641 </r>
       <r>    18.7637     0.0000    14.1166 </r>
       <r>    18.9700     0.4166    14.2944 </r>
       <r>    19.1763     0.2314    14.4508 </r>
       <r>    19.3825     0.3173    14.5910 </r>
       <r>    19.5888     0.2968    14.7748 </r>
       <r>    19.7951     0.2153    14.9460 </r>
       <r>    20.0013     0.2040    15.0836 </r>
       <r>    20.2076     0.2874    15.2408 </r>
       <r>    20.4139     0.1135    15.3929 </r>
       <r>    20.6201     0.1057    15.5196 </r>
       <r>    20.8264     0.1703    15.6248 </r>
       <r>    21.0327     0.2335    15.6932 </r>
       <r>    21.2389     0.1031    15.7567 </r>
       <r>    21.4452     0.1502    15.8014 </r>
       <r>    21.6515     0.0000    15.8520 </r>
       <r>    21.8577     0.0013    15.8990 </r>
       <r>    22.0640     0.0483    15.9400 </r>
       <r>    22.2703     0.0424    15.9738 </r>
       <r>    22.4765     0.0848    15.9913 </r>
       <r>    22.6828     0.0000    15.9913 </r>
       <r>    22.8891     0.0000    15.9913 </r>
       <r>    23.0953     0.0000    15.9913 </r>
       <r>    23.3016     0.0000    16.0000 </r>
       <r>    23.5079     0.0000    16.0000 </r>
       <r>    23.7141     0.0000    16.0000 </r>
       <r>    23.9204     0.0000    16.0000 </r>
       <r>    24.1267     0.0000    16.0000 </r>
       <r>    24.3329     0.0000    16.0000 </r>
       <r>    24.5392     0.0000    16.0000 </r>
       <r>    24.7455     0.0000    16.0000 </r>
       <r>    24.9517     0.0000    16.0000 </r>
       <r>    25.1580     0.0000    16.0000 </r>
       <r>    25.3643     0.0000    16.0000 </r>
       <r>    25.5705     0.0000    16.0000 </r>
       <r>    25.7768     0.0000    16.0000 </r>
       <r>    25.9831     0.0000    16.0000 </r>
      </set>
     </set>
    </array>
   </total>
  </dos>
 </calculation>
 <structure name="finalpos" >
  <crystal>
   <varray name="basis" >
    <v>      -2.09750964       0.00000000       2.09750964 </v>
    <v>       0.00000000       2.09750964       2.09750964 </v>
    <v>      -2.09750964       2.09750964       0.00000000 </v>
   </varray>
   <i name="volume">     18.45618326 </i>
   <varray name="rec_basis" >
    <v>      -0.23837793      -0.23837793       0.23837793 </v>
    <v>       0.23837793       0.23837793       0.23837793 </v>
    <v>      -0.23837793       0.23837793      -0.23837793 </v>
   </varray>
  </crystal>
  <varray name="positions" >
   <v>       0.00000000       0.00000000       0.00000000 </v>
  </varray>
 </structure>
</modeling>
