
     Program PWSCF v.7.1 starts on  3Jan2024 at 14:28: 0 

     This program is part of the open-source Quantum ESPRESSO suite
     for quantum simulation of materials; please cite
         "P. Giannozzi et al., J. Phys.:Condens. Matter 21 395502 (2009);
         "P. Giannozzi et al., J. Phys.:Condens. Matter 29 465901 (2017);
         "P. Giannozzi et al., J. Chem. Phys. 152 154105 (2020);
          URL http://www.quantum-espresso.org", 
     in publications or presentations arising from this work. More details at
     http://www.quantum-espresso.org/quote

     Parallel version (MPI), running on     8 processors

     MPI processes distributed on     1 nodes
     120070 MiB available memory on the printing compute node when the environment starts
 
     Reading input from pw_mp-66_emass_k3000_E130.in
Warning: card &IONS ignored
Warning: card / ignored
Warning: card &CELL ignored
Warning: card / ignored

     Current dimensions of program PWSCF are:
     Max number of different atomic species (ntypx) = 10
     Max number of k-points (npk) =  40000
     Max angular momentum in pseudopotentials (lmaxx) =  4

     Atomic positions and unit cell read from directory:
     out/mp-66.save/
     Atomic positions from file used, from input discarded
 
 
     R & G space division:  proc/nbgrp/npool/nimage =       8
     Subspace diagonalization in iterative solution of the eigenvalue problem:
     a serial algorithm will be used

 
     Parallelization info
     --------------------
     sticks:   dense  smooth     PW     G-vecs:    dense   smooth      PW
     Min         101     101     29                 1918     1918     284
     Max         103     103     30                 1920     1920     285
     Sum         817     817    235                15353    15353    2277
 
     Using Slab Decomposition
 


     bravais-lattice index     =            2
     lattice parameter (alat)  =       6.7288  a.u.
     unit-cell volume          =      76.1657 (a.u.)^3
     number of atoms/cell      =            2
     number of atomic types    =            1
     number of electrons       =         8.00
     number of Kohn-Sham states=            8
     kinetic-energy cutoff     =     130.0000  Ry
     charge density cutoff     =     520.0000  Ry
     Exchange-correlation= PBE
                           (   1   4   3   4   0   0   0)

     celldm(1)=   6.728833  celldm(2)=   0.000000  celldm(3)=   0.000000
     celldm(4)=   0.000000  celldm(5)=   0.000000  celldm(6)=   0.000000

     crystal axes: (cart. coord. in units of alat)
               a(1) = (  -0.500000   0.000000   0.500000 )  
               a(2) = (   0.000000   0.500000   0.500000 )  
               a(3) = (  -0.500000   0.500000   0.000000 )  

     reciprocal axes: (cart. coord. in units 2 pi/alat)
               b(1) = ( -1.000000 -1.000000  1.000000 )  
               b(2) = (  1.000000  1.000000  1.000000 )  
               b(3) = ( -1.000000  1.000000 -1.000000 )  


     PseudoPot. # 1 for C  read from file:
     /usr/scratch4/magr4985/MG/devEb/pseudo/SG15/C.upf
     MD5 check sum: 3d2597e5eef38528f7293c089e88409c
     Pseudo is Norm-conserving, Zval =  4.0
     Generated using ONCVPSP code by D. R. Hamann
     Using radial grid of  602 points,  4 beta functions with: 
                l(1) =   0
                l(2) =   0
                l(3) =   1
                l(4) =   1

     atomic species   valence    mass     pseudopotential
        C              4.00    12.01070     C ( 1.00)

     48 Sym. Ops., with inversion, found (24 have fractional translation)



   Cartesian axes

     site n.     atom                  positions (alat units)
         1           C   tau(   1) = (  -0.5000000   0.5000000   0.0000000  )
         2           C   tau(   2) = (  -0.7500000   0.7500000   0.7500000  )

     number of k points=     7  Gaussian smearing, width (Ry)=  0.0005
                       cart. coord. in units 2pi/alat
        k(    1) = (   0.0000000   0.7500000   0.0000000), wk =   0.2857143
        k(    2) = (   0.0100000   0.7500000   0.0000000), wk =   0.2857143
        k(    3) = (  -0.0100000   0.7500000   0.0000000), wk =   0.2857143
        k(    4) = (   0.0000000   0.7600000   0.0000000), wk =   0.2857143
        k(    5) = (   0.0000000   0.7400000   0.0000000), wk =   0.2857143
        k(    6) = (   0.0000000   0.7500000   0.0100000), wk =   0.2857143
        k(    7) = (   0.0000000   0.7500000  -0.0100000), wk =   0.2857143

     Dense  grid:    15353 G-vectors     FFT dimensions: (  36,  36,  36)

     Estimated max dynamical RAM per process >       1.57 MB

     Estimated total dynamical RAM >      12.55 MB

     The potential is recalculated from file :
     out/mp-66.save/charge-density

     Starting wfcs are random

     Band Structure Calculation
     ParO style diagonalization

     ethr =  5.00E-06,  avg # of iterations = 17.6

     total cpu time spent up to now is        0.4 secs

     End of band structure calculation

          k = 0.0000 0.7500 0.0000 (  1916 PWs)   bands (ev):

    -3.0337   4.8236   7.6413   7.6413  17.5912  20.2032  28.5511  28.5511

          k = 0.0100 0.7500 0.0000 (  1912 PWs)   bands (ev):

    -3.0328   4.8231   7.6388   7.6406  17.5953  20.2066  28.5471  28.5512

          k =-0.0100 0.7500 0.0000 (  1912 PWs)   bands (ev):

    -3.0328   4.8231   7.6388   7.6406  17.5953  20.2066  28.5471  28.5512

          k = 0.0000 0.7600 0.0000 (  1908 PWs)   bands (ev):

    -2.9024   4.6533   7.5976   7.5976  17.5958  20.0937  28.6687  28.6687

          k = 0.0000 0.7400 0.0000 (  1916 PWs)   bands (ev):

    -3.1635   4.9938   7.6867   7.6867  17.5880  20.3155  28.4307  28.4307

          k = 0.0000 0.7500 0.0100 (  1912 PWs)   bands (ev):

    -3.0328   4.8231   7.6388   7.6406  17.5953  20.2066  28.5471  28.5512

          k = 0.0000 0.7500-0.0100 (  1912 PWs)   bands (ev):

    -3.0328   4.8231   7.6388   7.6406  17.5953  20.2066  28.5471  28.5512

     the Fermi energy is    12.7526 ev
     (compare with:    18.1554 eV, computed in scf)

     Writing all to output data dir out/mp-66.save/
 
     init_run     :      0.05s CPU      0.06s WALL (       1 calls)
     electrons    :      0.22s CPU      0.24s WALL (       1 calls)

     Called by init_run:
     wfcinit      :      0.00s CPU      0.00s WALL (       1 calls)
     potinit      :      0.03s CPU      0.03s WALL (       1 calls)
     hinit0       :      0.01s CPU      0.01s WALL (       1 calls)

     Called by electrons:
     c_bands      :      0.22s CPU      0.24s WALL (       1 calls)
     v_of_rho     :      0.01s CPU      0.01s WALL (       1 calls)

     Called by c_bands:
     init_us_2    :      0.00s CPU      0.00s WALL (       7 calls)
     init_us_2:cp :      0.00s CPU      0.00s WALL (       7 calls)
     paro_k       :      0.21s CPU      0.23s WALL (       7 calls)

     Called by paro_*:
     h_psi        :      0.17s CPU      0.19s WALL (     321 calls)
     g_psi        :      0.00s CPU      0.00s WALL (    1203 calls)

     Called by h_psi:
     h_psi:calbec :      0.01s CPU      0.01s WALL (     321 calls)
     vloc_psi     :      0.16s CPU      0.17s WALL (     321 calls)
     add_vuspsi   :      0.00s CPU      0.00s WALL (     321 calls)

     General routines
     calbec       :      0.01s CPU      0.01s WALL (     321 calls)
     fft          :      0.00s CPU      0.01s WALL (      10 calls)
     fftw         :      0.14s CPU      0.16s WALL (    2040 calls)
 
     Parallel routines
 
     PWSCF        :      0.39s CPU      0.44s WALL

 
   This run was terminated on:  14:28: 0   3Jan2024            

=------------------------------------------------------------------------------=
   JOB DONE.
=------------------------------------------------------------------------------=
