
     Program PWSCF v.7.1 starts on  3Jan2024 at 14:33: 2 

     This program is part of the open-source Quantum ESPRESSO suite
     for quantum simulation of materials; please cite
         "P. Giannozzi et al., J. Phys.:Condens. Matter 21 395502 (2009);
         "P. Giannozzi et al., J. Phys.:Condens. Matter 29 465901 (2017);
         "P. Giannozzi et al., J. Chem. Phys. 152 154105 (2020);
          URL http://www.quantum-espresso.org", 
     in publications or presentations arising from this work. More details at
     http://www.quantum-espresso.org/quote

     Parallel version (MPI), running on     8 processors

     MPI processes distributed on     1 nodes
     248603 MiB available memory on the printing compute node when the environment starts
 
     Reading input from pw_mp-23251_scf_k3000_E65.in
Warning: card &CELL ignored
Warning: card / ignored

     Current dimensions of program PWSCF are:
     Max number of different atomic species (ntypx) = 10
     Max number of k-points (npk) =  40000
     Max angular momentum in pseudopotentials (lmaxx) =  4
 
     R & G space division:  proc/nbgrp/npool/nimage =       8
     Subspace diagonalization in iterative solution of the eigenvalue problem:
     a serial algorithm will be used

 
     Parallelization info
     --------------------
     sticks:   dense  smooth     PW     G-vecs:    dense   smooth      PW
     Min         174     174     51                 4290     4290     666
     Max         175     175     52                 4293     4293     667
     Sum        1393    1393    409                34327    34327    5329
 
     Using Slab Decomposition
 


     bravais-lattice index     =            2
     lattice parameter (alat)  =      12.4516  a.u.
     unit-cell volume          =     482.6266 (a.u.)^3
     number of atoms/cell      =            2
     number of atomic types    =            2
     number of electrons       =        16.00
     number of Kohn-Sham states=           16
     kinetic-energy cutoff     =      65.0000  Ry
     charge density cutoff     =     260.0000  Ry
     scf convergence threshold =      1.0E-10
     mixing beta               =       0.7000
     number of iterations used =            8  plain     mixing
     Exchange-correlation= PBE
                           (   1   4   3   4   0   0   0)

     celldm(1)=  12.451559  celldm(2)=   0.000000  celldm(3)=   0.000000
     celldm(4)=   0.000000  celldm(5)=   0.000000  celldm(6)=   0.000000

     crystal axes: (cart. coord. in units of alat)
               a(1) = (  -0.500000   0.000000   0.500000 )  
               a(2) = (   0.000000   0.500000   0.500000 )  
               a(3) = (  -0.500000   0.500000   0.000000 )  

     reciprocal axes: (cart. coord. in units 2 pi/alat)
               b(1) = ( -1.000000 -1.000000  1.000000 )  
               b(2) = (  1.000000  1.000000  1.000000 )  
               b(3) = ( -1.000000  1.000000 -1.000000 )  


     PseudoPot. # 1 for Br read from file:
     /usr/scratch4/magr4985/MG/devEb/pseudo/SG15/Br.upf
     MD5 check sum: d26c51d81abb03042b648ee3fecf55db
     Pseudo is Norm-conserving, Zval =  7.0
     Generated using ONCVPSP code by D. R. Hamann
     Using radial grid of  602 points,  6 beta functions with: 
                l(1) =   0
                l(2) =   0
                l(3) =   1
                l(4) =   1
                l(5) =   2
                l(6) =   2

     PseudoPot. # 2 for K  read from file:
     /usr/scratch4/magr4985/MG/devEb/pseudo/SG15/K.upf
     MD5 check sum: 546a68abc2c0296de6abd828b0bae2fd
     Pseudo is Norm-conserving, Zval =  9.0
     Generated using ONCVPSP code by D. R. Hamann
     Using radial grid of  602 points,  6 beta functions with: 
                l(1) =   0
                l(2) =   0
                l(3) =   1
                l(4) =   1
                l(5) =   2
                l(6) =   2

     atomic species   valence    mass     pseudopotential
        Br             7.00    79.90400     Br( 1.00)
        K              9.00    39.09830     K ( 1.00)

     48 Sym. Ops., with inversion, found



   Cartesian axes

     site n.     atom                  positions (alat units)
         1           K   tau(   1) = (   0.0000000   0.0000000   0.0000000  )
         2           Br  tau(   2) = (  -0.5000000   0.5000000   0.5000000  )

     number of k points=    72  Gaussian smearing, width (Ry)=  0.0005
                       cart. coord. in units 2pi/alat
        k(    1) = (   0.0000000   0.0000000   0.0000000), wk =   0.0011574
        k(    2) = (  -0.0833333   0.0833333  -0.0833333), wk =   0.0092593
        k(    3) = (  -0.1666667   0.1666667  -0.1666667), wk =   0.0092593
        k(    4) = (  -0.2500000   0.2500000  -0.2500000), wk =   0.0092593
        k(    5) = (  -0.3333333   0.3333333  -0.3333333), wk =   0.0092593
        k(    6) = (  -0.4166667   0.4166667  -0.4166667), wk =   0.0092593
        k(    7) = (   0.5000000  -0.5000000   0.5000000), wk =   0.0046296
        k(    8) = (   0.0000000   0.1666667   0.0000000), wk =   0.0069444
        k(    9) = (  -0.0833333   0.2500000  -0.0833333), wk =   0.0277778
        k(   10) = (  -0.1666667   0.3333333  -0.1666667), wk =   0.0277778
        k(   11) = (  -0.2500000   0.4166667  -0.2500000), wk =   0.0277778
        k(   12) = (  -0.3333333   0.5000000  -0.3333333), wk =   0.0277778
        k(   13) = (   0.5833333  -0.4166667   0.5833333), wk =   0.0277778
        k(   14) = (   0.5000000  -0.3333333   0.5000000), wk =   0.0277778
        k(   15) = (   0.4166667  -0.2500000   0.4166667), wk =   0.0277778
        k(   16) = (   0.3333333  -0.1666667   0.3333333), wk =   0.0277778
        k(   17) = (   0.2500000  -0.0833333   0.2500000), wk =   0.0277778
        k(   18) = (   0.1666667  -0.0000000   0.1666667), wk =   0.0138889
        k(   19) = (   0.0000000   0.3333333   0.0000000), wk =   0.0069444
        k(   20) = (  -0.0833333   0.4166667  -0.0833333), wk =   0.0277778
        k(   21) = (  -0.1666667   0.5000000  -0.1666667), wk =   0.0277778
        k(   22) = (  -0.2500000   0.5833333  -0.2500000), wk =   0.0277778
        k(   23) = (   0.6666667  -0.3333333   0.6666667), wk =   0.0277778
        k(   24) = (   0.5833333  -0.2500000   0.5833333), wk =   0.0277778
        k(   25) = (   0.5000000  -0.1666667   0.5000000), wk =   0.0277778
        k(   26) = (   0.4166667  -0.0833333   0.4166667), wk =   0.0277778
        k(   27) = (   0.3333333   0.0000000   0.3333333), wk =   0.0138889
        k(   28) = (   0.0000000   0.5000000   0.0000000), wk =   0.0069444
        k(   29) = (  -0.0833333   0.5833333  -0.0833333), wk =   0.0277778
        k(   30) = (  -0.1666667   0.6666667  -0.1666667), wk =   0.0277778
        k(   31) = (   0.7500000  -0.2500000   0.7500000), wk =   0.0277778
        k(   32) = (   0.6666667  -0.1666667   0.6666667), wk =   0.0277778
        k(   33) = (   0.5833333  -0.0833333   0.5833333), wk =   0.0277778
        k(   34) = (   0.5000000   0.0000000   0.5000000), wk =   0.0138889
        k(   35) = (   0.0000000   0.6666667   0.0000000), wk =   0.0069444
        k(   36) = (  -0.0833333   0.7500000  -0.0833333), wk =   0.0277778
        k(   37) = (   0.8333333  -0.1666667   0.8333333), wk =   0.0277778
        k(   38) = (   0.7500000  -0.0833333   0.7500000), wk =   0.0277778
        k(   39) = (   0.6666667  -0.0000000   0.6666667), wk =   0.0138889
        k(   40) = (   0.0000000   0.8333333   0.0000000), wk =   0.0069444
        k(   41) = (   0.9166667  -0.0833333   0.9166667), wk =   0.0277778
        k(   42) = (   0.8333333   0.0000000   0.8333333), wk =   0.0138889
        k(   43) = (   0.0000000  -1.0000000   0.0000000), wk =   0.0034722
        k(   44) = (  -0.1666667   0.3333333   0.0000000), wk =   0.0277778
        k(   45) = (  -0.2500000   0.4166667  -0.0833333), wk =   0.0555556
        k(   46) = (  -0.3333333   0.5000000  -0.1666667), wk =   0.0555556
        k(   47) = (   0.5833333  -0.4166667   0.7500000), wk =   0.0555556
        k(   48) = (   0.5000000  -0.3333333   0.6666667), wk =   0.0277778
        k(   49) = (  -0.1666667   0.5000000   0.0000000), wk =   0.0277778
        k(   50) = (  -0.2500000   0.5833333  -0.0833333), wk =   0.0555556
        k(   51) = (   0.6666667  -0.3333333   0.8333333), wk =   0.0555556
        k(   52) = (   0.5833333  -0.2500000   0.7500000), wk =   0.0555556
        k(   53) = (   0.5000000  -0.1666667   0.6666667), wk =   0.0555556
        k(   54) = (   0.4166667  -0.0833333   0.5833333), wk =   0.0555556
        k(   55) = (   0.3333333   0.0000000   0.5000000), wk =   0.0277778
        k(   56) = (  -0.1666667   0.6666667  -0.0000000), wk =   0.0277778
        k(   57) = (   0.7500000  -0.2500000   0.9166667), wk =   0.0555556
        k(   58) = (   0.6666667  -0.1666667   0.8333333), wk =   0.0555556
        k(   59) = (   0.5833333  -0.0833333   0.7500000), wk =   0.0555556
        k(   60) = (   0.5000000   0.0000000   0.6666667), wk =   0.0277778
        k(   61) = (   0.8333333  -0.1666667   1.0000000), wk =   0.0277778
        k(   62) = (   0.7500000  -0.0833333   0.9166667), wk =   0.0555556
        k(   63) = (   0.6666667   0.0000000   0.8333333), wk =   0.0277778
        k(   64) = (  -0.1666667  -1.0000000  -0.0000000), wk =   0.0138889
        k(   65) = (   0.6666667  -0.3333333   1.0000000), wk =   0.0277778
        k(   66) = (   0.5833333  -0.2500000   0.9166667), wk =   0.0555556
        k(   67) = (   0.5000000  -0.1666667   0.8333333), wk =   0.0277778
        k(   68) = (   0.6666667  -0.1666667   1.0000000), wk =   0.0277778
        k(   69) = (   0.5833333  -0.0833333   0.9166667), wk =   0.0555556
        k(   70) = (   0.5000000   0.0000000   0.8333333), wk =   0.0277778
        k(   71) = (  -0.3333333  -1.0000000   0.0000000), wk =   0.0138889
        k(   72) = (  -0.5000000  -1.0000000   0.0000000), wk =   0.0069444

     Dense  grid:    34327 G-vectors     FFT dimensions: (  45,  45,  45)

     Estimated max dynamical RAM per process >      15.40 MB

     Estimated total dynamical RAM >     123.17 MB

     Initial potential from superposition of free atoms

     starting charge      15.7253, renormalised to      16.0000
     Starting wfcs are random

     total cpu time spent up to now is        0.6 secs

     Self-consistent Calculation

     iteration #  1     ecut=    65.00 Ry     beta= 0.70
     ParO style diagonalization
     ethr =  5.00E-06,  avg # of iterations = 29.0

     total cpu time spent up to now is       12.6 secs

     total energy              =     -84.04201942 Ry
     estimated scf accuracy    <       0.05122445 Ry

     iteration #  2     ecut=    65.00 Ry     beta= 0.70
     ParO style diagonalization
     ethr =  3.20E-04,  avg # of iterations =  7.6

     total cpu time spent up to now is       16.2 secs

     total energy              =     -84.05645859 Ry
     estimated scf accuracy    <       0.01067365 Ry

     iteration #  3     ecut=    65.00 Ry     beta= 0.70
     ParO style diagonalization
     ethr =  6.67E-05,  avg # of iterations =  6.4

     total cpu time spent up to now is       19.3 secs

     total energy              =     -84.05866846 Ry
     estimated scf accuracy    <       0.00025385 Ry

     iteration #  4     ecut=    65.00 Ry     beta= 0.70
     ParO style diagonalization
     ethr =  1.59E-06,  avg # of iterations =  7.1

     total cpu time spent up to now is       22.8 secs

     total energy              =     -84.05871345 Ry
     estimated scf accuracy    <       0.00001121 Ry

     iteration #  5     ecut=    65.00 Ry     beta= 0.70
     ParO style diagonalization
     ethr =  7.01E-08,  avg # of iterations =  7.5

     total cpu time spent up to now is       26.4 secs

     total energy              =     -84.05871635 Ry
     estimated scf accuracy    <       0.00000038 Ry

     iteration #  6     ecut=    65.00 Ry     beta= 0.70
     ParO style diagonalization
     ethr =  2.34E-09,  avg # of iterations =  7.9

     total cpu time spent up to now is       30.2 secs

     total energy              =     -84.05871650 Ry
     estimated scf accuracy    <          3.7E-09 Ry

     iteration #  7     ecut=    65.00 Ry     beta= 0.70
     ParO style diagonalization
     ethr =  2.29E-11,  avg # of iterations =  8.5

     total cpu time spent up to now is       34.2 secs

     total energy              =     -84.05871650 Ry
     estimated scf accuracy    <          2.0E-10 Ry

     iteration #  8     ecut=    65.00 Ry     beta= 0.70
     ParO style diagonalization
     ethr =  1.27E-12,  avg # of iterations =  7.1

     total cpu time spent up to now is       37.7 secs

     End of self-consistent calculation

          k = 0.0000 0.0000 0.0000 (  4279 PWs)   bands (ev):

   -26.6579 -11.1858 -10.1367 -10.1367 -10.1367   1.1155   1.1155   1.1155
     5.5470   8.7182   8.7182   8.7182   9.5399   9.5399  12.7372  16.0451

          k =-0.0833 0.0833-0.0833 (  4288 PWs)   bands (ev):

   -26.6576 -11.2003 -10.1370 -10.1370 -10.1175   1.0087   1.0911   1.0911
     5.7306   8.6647   8.8017   8.8017   9.6314   9.6314  12.9941  15.4138

          k =-0.1667 0.1667-0.1667 (  4285 PWs)   bands (ev):

   -26.6565 -11.2374 -10.1381 -10.1381 -10.0674   0.7465   1.0256   1.0256
     6.2070   8.5806   9.0433   9.0433   9.8978   9.8978  13.5845  14.5545

          k =-0.2500 0.2500-0.2500 (  4272 PWs)   bands (ev):

   -26.6551 -11.2837 -10.1395 -10.1395 -10.0032   0.4382   0.9396   0.9396
     6.8051   8.6067   9.4219   9.4219  10.3101  10.3101  13.2988  14.1116

          k =-0.3333 0.3333-0.3333 (  4272 PWs)   bands (ev):

   -26.6536 -11.3259 -10.1409 -10.1409  -9.9428   0.1689   0.8570   0.8570
     7.3161   8.8439   9.9110   9.9110  10.7974  10.7974  12.6034  13.2633

          k =-0.4167 0.4167-0.4167 (  4263 PWs)   bands (ev):

   -26.6526 -11.3547 -10.1419 -10.1419  -9.9006  -0.0104   0.7986   0.7986
     7.6111   9.1988  10.4663  10.4663  11.1860  11.1860  12.1772  12.5592

          k = 0.5000-0.5000 0.5000 (  4314 PWs)   bands (ev):

   -26.6522 -11.3649 -10.1423 -10.1423  -9.8854  -0.0729   0.7776   0.7776
     7.7044   9.3664  10.8665  10.8665  11.2024  11.2024  12.0627  12.2768

          k = 0.0000 0.1667 0.0000 (  4284 PWs)   bands (ev):

   -26.6574 -11.2033 -10.1391 -10.1391 -10.1097   0.9655   1.0909   1.0909
     5.7842   8.5229   8.8949   8.8949   9.5915   9.7285  13.0731  15.4095

          k =-0.0833 0.2500-0.0833 (  4281 PWs)   bands (ev):

   -26.6566 -11.2284 -10.1415 -10.1400 -10.0744   0.7702   1.0374   1.0465
     6.1472   8.3788   9.1052   9.1434   9.7337   9.9914  13.5609  14.5369

          k =-0.1667 0.3333-0.1667 (  4277 PWs)   bands (ev):

   -26.6553 -11.2661 -10.1438 -10.1405 -10.0227   0.5072   0.9478   0.9720
     6.6988   8.3511   9.4055   9.5172  10.0494  10.3818  13.4243  14.1608

          k =-0.2500 0.4167-0.2500 (  4271 PWs)   bands (ev):

   -26.6539 -11.3047 -10.1452 -10.1420  -9.9684   0.2528   0.8553   0.8893
     7.2484   8.5328   9.7973   9.9874  10.4889  10.8031  12.6715  13.3893

          k =-0.3333 0.5000-0.3333 (  4273 PWs)   bands (ev):

   -26.6527 -11.3347 -10.1454 -10.1444  -9.9250   0.0626   0.7851   0.8201
     7.6105   8.9334  10.2375  10.5327  10.9111  11.0502  12.2673  12.6867

          k = 0.5833-0.4167 0.5833 (  4279 PWs)   bands (ev):

   -26.6521 -11.3499 -10.1469 -10.1444  -9.9024  -0.0307   0.7533   0.7809
     7.7702   9.2606  10.6124  10.9063  11.0312  11.1946  12.2030  12.2786

          k = 0.5000-0.3333 0.5000 (  4276 PWs)   bands (ev):

   -26.6522 -11.3476 -10.1489 -10.1424  -9.9055  -0.0129   0.7662   0.7807
     7.7462   9.2179  10.5149  10.7381  10.8059  11.5247  12.1563  12.3551

          k = 0.4167-0.2500 0.4167 (  4275 PWs)   bands (ev):

   -26.6530 -11.3283 -10.1495 -10.1399  -9.9338   0.1139   0.8195   0.8204
     7.5290   8.8623   9.9740  10.3332  10.6678  11.2221  12.3043  13.0036

          k = 0.3333-0.1667 0.3333 (  4272 PWs)   bands (ev):

   -26.6543 -11.2954 -10.1485 -10.1377  -9.9814   0.3305   0.8888   0.9034
     7.0912   8.5454   9.4863   9.8606  10.3415  10.7058  12.8533  13.7235

          k = 0.2500-0.0833 0.2500 (  4283 PWs)   bands (ev):

   -26.6558 -11.2561 -10.1458 -10.1362 -10.0376   0.5983   0.9720   0.9940
     6.5147   8.4609   9.1104   9.4303   9.9689  10.2183  13.6550  14.0119

          k = 0.1667-0.0000 0.1667 (  4279 PWs)   bands (ev):

   -26.6570 -11.2205 -10.1416 -10.1360 -10.0882   0.8537   1.0467   1.0644
     6.0052   8.5434   8.8758   9.0622   9.7134   9.8466  13.3689  14.7134

          k = 0.0000 0.3333 0.0000 (  4272 PWs)   bands (ev):

   -26.6560 -11.2322 -10.1457 -10.1457 -10.0613   0.6570   1.0282   1.0282
     6.3481   8.0928   9.4011   9.4011   9.7385  10.2262  13.8778  14.1601

          k =-0.0833 0.4167-0.0833 (  4269 PWs)   bands (ev):

   -26.6550 -11.2475 -10.1494 -10.1481 -10.0376   0.4858   0.9616   0.9766
     6.7700   7.9384   9.7419   9.7624   9.9402  10.5451  13.2795  14.0753

          k =-0.1667 0.5000-0.1667 (  4264 PWs)   bands (ev):

   -26.6537 -11.2692 -10.1517 -10.1500 -10.0071   0.3123   0.8574   0.9073
     7.2924   8.0014  10.0973  10.1306  10.3726  10.7937  12.5469  13.4566

          k =-0.2500 0.5833-0.2500 (  4276 PWs)   bands (ev):

   -26.6525 -11.2909 -10.1540 -10.1519  -9.9756   0.1707   0.7574   0.8394
     7.6681   8.4144  10.3996  10.5725  10.7476  10.8399  12.1747  12.8266

          k = 0.6667-0.3333 0.6667 (  4264 PWs)   bands (ev):

   -26.6518 -11.3071 -10.1596 -10.1501  -9.9504   0.0834   0.6953   0.7901
     7.8865   8.9340  10.4037  10.6788  10.9758  11.1656  12.0750  12.3963

          k = 0.5833-0.2500 0.5833 (  4281 PWs)   bands (ev):

   -26.6517 -11.3143 -10.1645 -10.1466  -9.9383   0.0643   0.6875   0.7710
     7.9826   9.1144  10.2233  10.6816  10.7536  11.7556  12.1271  12.2218

          k = 0.5000-0.1667 0.5000 (  4281 PWs)   bands (ev):

   -26.6522 -11.3111 -10.1663 -10.1425  -9.9431   0.1184   0.7337   0.7868
     7.8788   8.8490  10.1602  10.1766  10.7505  11.7433  12.1070  12.5765

          k = 0.4167-0.0833 0.4167 (  4267 PWs)   bands (ev):

   -26.6533 -11.2983 -10.1634 -10.1388  -9.9648   0.2399   0.8196   0.8341
     7.5342   8.4939   9.7034  10.1177  10.5259  11.2133  12.3142  13.3449

          k = 0.3333 0.0000 0.3333 (  4293 PWs)   bands (ev):

   -26.6546 -11.2784 -10.1559 -10.1365  -9.9991   0.4108   0.9015   0.9180
     7.0051   8.3830   9.3367   9.8485  10.2123  10.6718  12.9127  13.8729

          k = 0.0000 0.5000 0.0000 (  4256 PWs)   bands (ev):

   -26.6542 -11.2334 -10.1548 -10.1548 -10.0491   0.4023   0.9522   0.9522
     7.0199   7.6426   9.9562  10.1658  10.1658  10.7414  12.7839  13.8523

          k =-0.0833 0.5833-0.0833 (  4261 PWs)   bands (ev):

   -26.6531 -11.2276 -10.1589 -10.1586 -10.0541   0.3143   0.8832   0.9061
     7.4223   7.5527  10.1383  10.5646  10.6350  10.8025  12.2547  13.4795

          k =-0.1667 0.6667-0.1667 (  4264 PWs)   bands (ev):

   -26.6521 -11.2314 -10.1662 -10.1597 -10.0445   0.2533   0.7667   0.8514
     7.5620   8.0574  10.4471  10.4921  10.8641  11.0939  11.9639  13.0331

          k = 0.7500-0.2500 0.7500 (  4267 PWs)   bands (ev):

   -26.6513 -11.2434 -10.1774 -10.1578 -10.0207   0.2240   0.6485   0.8026
     7.7693   8.6974  10.0819  10.7580  10.8533  11.3069  12.0025  12.7336

          k = 0.6667-0.1667 0.6667 (  4270 PWs)   bands (ev):

   -26.6511 -11.2602 -10.1857 -10.1535  -9.9926   0.2079   0.5865   0.7722
     8.0467   9.0564   9.8970  10.4501  10.9397  11.4768  12.2365  12.6425

          k = 0.5833-0.0833 0.5833 (  4270 PWs)   bands (ev):

   -26.6514 -11.2778 -10.1861 -10.1479  -9.9702   0.1900   0.6155   0.7676
     8.2069   8.8904   9.7797  10.4991  10.6410  12.0558  12.1624  12.3347

          k = 0.5000 0.0000 0.5000 (  4259 PWs)   bands (ev):

   -26.6522 -11.2918 -10.1777 -10.1425  -9.9602   0.1929   0.7095   0.7899
     8.0132   8.5846   9.9479  10.0538  10.7418  11.7897  12.0898  12.7055

          k = 0.0000 0.6667 0.0000 (  4260 PWs)   bands (ev):

   -26.6523 -11.1906 -10.1640 -10.1640 -10.0995   0.2891   0.8860   0.8860
     7.2806   7.6732  10.1979  10.7335  11.0420  11.0420  11.9170  13.4204

          k =-0.0833 0.7500-0.0833 (  4268 PWs)   bands (ev):

   -26.6515 -11.1693 -10.1752 -10.1666 -10.1187   0.2785   0.8192   0.8527
     7.2392   8.0499  10.3730  10.4652  11.2697  11.4174  11.7360  13.2865

          k = 0.8333-0.1667 0.8333 (  4265 PWs)   bands (ev):

   -26.6509 -11.1714 -10.1969 -10.1656 -10.0972   0.3032   0.6840   0.8154
     7.3989   8.5731  10.0605  10.6618  10.8893  11.5423  12.0343  13.2268

          k = 0.7500-0.0833 0.7500 (  4264 PWs)   bands (ev):

   -26.6507 -11.1965 -10.2072 -10.1613 -10.0566   0.3597   0.5213   0.7839
     7.7146   9.1812   9.6519  10.3905  11.0457  11.3168  12.4275  13.0669

          k = 0.6667-0.0000 0.6667 (  4277 PWs)   bands (ev):

   -26.6509 -11.2360 -10.2021 -10.1548 -10.0107   0.3140   0.5003   0.7665
     8.0871   9.1816   9.6789  10.2342  10.8994  11.5348  12.5052  12.8233

          k = 0.0000 0.8333 0.0000 (  4272 PWs)   bands (ev):

   -26.6510 -11.1231 -10.1842 -10.1708 -10.1708   0.2833   0.8429   0.8429
     7.0516   8.1635  10.3945  10.4685  11.3127  11.6811  11.6811  13.5287

          k = 0.9167-0.0833 0.9167 (  4264 PWs)   bands (ev):

   -26.6506 -11.1113 -10.2169 -10.1712 -10.1547   0.3044   0.7813   0.8248
     7.0888   8.4021  10.3640  10.5217  10.8861  11.7519  11.9572  13.6853

          k = 0.8333 0.0000 0.8333 (  4262 PWs)   bands (ev):

   -26.6505 -11.1400 -10.2215 -10.1677 -10.1150   0.3506   0.6403   0.8032
     7.3331   8.7843  10.0363  10.5334  10.7507  11.5908  12.2934  13.4016

          k = 0.0000-1.0000 0.0000 (  4264 PWs)   bands (ev):

   -26.6505 -11.0871 -10.2289 -10.1733 -10.1733   0.2969   0.8282   0.8282
     6.9737   8.3251  10.4715  10.6475  10.7763  11.8385  11.8385  13.9394

          k =-0.1667 0.3333 0.0000 (  4280 PWs)   bands (ev):

   -26.6557 -11.2492 -10.1484 -10.1398 -10.0418   0.5864   0.9799   0.9971
     6.5386   8.2187   9.3138   9.5277   9.8963  10.3135  13.6853  13.9472

          k =-0.2500 0.4167-0.0833 (  4270 PWs)   bands (ev):

   -26.6544 -11.2760 -10.1542 -10.1403 -10.0015   0.3784   0.8935   0.9183
     7.0759   8.2132   9.6251   9.9232  10.2359  10.7135  12.8400  13.7870

          k =-0.3333 0.5000-0.1667 (  4269 PWs)   bands (ev):

   -26.6531 -11.3013 -10.1572 -10.1427  -9.9638   0.1962   0.8017   0.8426
     7.5602   8.4655  10.0253  10.2760  10.5949  11.0799  12.3108  13.1093

          k = 0.5833-0.4167 0.7500 (  4278 PWs)   bands (ev):

   -26.6521 -11.3189 -10.1576 -10.1460  -9.9374   0.0735   0.7341   0.7894
     7.8320   8.9197  10.3694  10.4739  10.8656  11.3707  12.1516  12.4852

          k = 0.5000-0.3333 0.6667 (  4284 PWs)   bands (ev):

   -26.6518 -11.3252 -10.1571 -10.1477  -9.9279   0.0304   0.7095   0.7703
     7.9233   9.1500  10.4185  10.6013  11.0255  11.5151  12.1189  12.1828

          k =-0.1667 0.5000 0.0000 (  4260 PWs)   bands (ev):

   -26.6539 -11.2514 -10.1579 -10.1487 -10.0274   0.3630   0.9070   0.9154
     7.1881   7.8033  10.0352  10.0788  10.3088  10.7750  12.6322  13.7248

          k =-0.2500 0.5833-0.0833 (  4268 PWs)   bands (ev):

   -26.6527 -11.2592 -10.1643 -10.1513 -10.0117   0.2593   0.8062   0.8501
     7.6477   7.9372  10.2389  10.4421  10.7483  10.8419  12.1888  13.2234

          k = 0.6667-0.3333 0.8333 (  4284 PWs)   bands (ev):

   -26.6518 -11.2686 -10.1683 -10.1559  -9.9930   0.1905   0.7018   0.7959
     7.8683   8.4961  10.1471  10.6808  10.9804  11.0849  12.0464  12.7334

          k = 0.5833-0.2500 0.7500 (  4280 PWs)   bands (ev):

   -26.6513 -11.2774 -10.1728 -10.1566  -9.9765   0.1568   0.6407   0.7629
     8.0672   8.9156  10.0186  10.4901  11.1643  11.4637  12.0955  12.3706

          k = 0.5000-0.1667 0.6667 (  4276 PWs)   bands (ev):

   -26.6514 -11.2836 -10.1762 -10.1523  -9.9675   0.1546   0.6485   0.7586
     8.1401   8.8718   9.9230  10.5328  10.9022  11.7545  12.1593  12.3114

          k = 0.4167-0.0833 0.5833 (  4275 PWs)   bands (ev):

   -26.6521 -11.2858 -10.1743 -10.1466  -9.9692   0.1883   0.7195   0.7842
     7.9958   8.4790  10.0093  10.3241  10.7923  11.4647  12.1514  12.7949

          k = 0.3333 0.0000 0.5000 (  4261 PWs)   bands (ev):

   -26.6532 -11.2831 -10.1662 -10.1421  -9.9817   0.2643   0.8221   0.8345
     7.5831   8.2132   9.9295  10.1119  10.5785  11.0906  12.3141  13.3538

          k =-0.1667 0.6667-0.0000 (  4265 PWs)   bands (ev):

   -26.6522 -11.2111 -10.1674 -10.1625 -10.0692   0.2772   0.8387   0.8439
     7.4604   7.8413  10.2783  10.6367  10.9736  11.0276  11.9478  13.3524

          k = 0.7500-0.2500 0.9167 (  4261 PWs)   bands (ev):

   -26.6514 -11.2064 -10.1784 -10.1690 -10.0612   0.2736   0.7225   0.7968
     7.5788   8.3702  10.0687  10.7224  10.9727  11.3407  11.9595  13.0683

          k = 0.6667-0.1667 0.8333 (  4269 PWs)   bands (ev):

   -26.6509 -11.2155 -10.1921 -10.1678 -10.0374   0.2989   0.5923   0.7616
     7.8446   8.9218   9.6861  10.5301  11.1156  11.4446  12.2019  12.8608

          k = 0.5833-0.0833 0.7500 (  4272 PWs)   bands (ev):

   -26.6509 -11.2360 -10.1964 -10.1618 -10.0094   0.2962   0.5391   0.7451
     8.1764   8.9608   9.6840  10.2652  11.1282  11.6217  12.3091  12.6619

          k = 0.5000 0.0000 0.6667 (  4271 PWs)   bands (ev):

   -26.6513 -11.2619 -10.1893 -10.1538  -9.9851   0.2325   0.6110   0.7521
     8.3363   8.6255   9.6884  10.6273  10.7115  11.7961  12.1675  12.5989

          k = 0.8333-0.1667 1.0000 (  4253 PWs)   bands (ev):

   -26.6509 -11.1475 -10.1947 -10.1744 -10.1235   0.2973   0.7850   0.7973
     7.2416   8.3643  10.1983  10.5550  11.0403  11.6601  11.9151  13.4041

          k = 0.7500-0.0833 0.9167 (  4269 PWs)   bands (ev):

   -26.6506 -11.1544 -10.2125 -10.1760 -10.0956   0.3479   0.6539   0.7661
     7.4503   8.7963   9.8352  10.5908  10.8244  11.7013  12.2366  13.3148

          k = 0.6667 0.0000 0.8333 (  4266 PWs)   bands (ev):

   -26.6506 -11.1879 -10.2114 -10.1709 -10.0549   0.4279   0.4793   0.7484
     7.8077   9.3025   9.3892  10.2565  11.1942  11.4624  12.5785  12.8238

          k =-0.1667-1.0000-0.0000 (  4262 PWs)   bands (ev):

   -26.6505 -11.1139 -10.2251 -10.1770 -10.1376   0.3240   0.7620   0.7814
     7.1669   8.5476  10.2515  10.6114  10.6614  11.8443  12.0364  13.6967

          k = 0.6667-0.3333 1.0000 (  4272 PWs)   bands (ev):

   -26.6518 -11.2481 -10.1766 -10.1583 -10.0120   0.2433   0.7380   0.7678
     7.9554   8.1884   9.9918  10.8170  10.8906  11.0481  12.0677  13.1068

          k = 0.5833-0.2500 0.9167 (  4274 PWs)   bands (ev):

   -26.6511 -11.2394 -10.1843 -10.1681 -10.0095   0.2626   0.6348   0.7280
     8.1661   8.6174   9.6673  10.5961  11.2094  11.4061  12.1836  12.6912

          k = 0.5000-0.1667 0.8333 (  4282 PWs)   bands (ev):

   -26.6509 -11.2360 -10.1864 -10.1730 -10.0081   0.2820   0.5831   0.7149
     8.3258   8.7084   9.6885  10.2717  11.4194  11.7556  12.1149  12.3909

          k = 0.6667-0.1667 1.0000 (  4266 PWs)   bands (ev):

   -26.6508 -11.1918 -10.1913 -10.1843 -10.0554   0.3294   0.6829   0.6901
     7.7733   8.7558   9.6041  10.6276  11.0561  11.5962  12.2380  13.0437

          k = 0.5833-0.0833 0.9167 (  4266 PWs)   bands (ev):

   -26.6506 -11.1933 -10.2017 -10.1873 -10.0404   0.4090   0.5511   0.6705
     8.1058   8.9119   9.3897  10.2384  11.4774  11.7054  12.3953  12.6580

          k = 0.5000 0.0000 0.8333 (  4265 PWs)   bands (ev):

   -26.6507 -11.2112 -10.1978 -10.1812 -10.0246   0.3747   0.5463   0.6814
     8.4761   8.5445   9.5081  10.2331  11.5069  11.7846  12.1100  12.8092

          k =-0.3333-1.0000 0.0000 (  4266 PWs)   bands (ev):

   -26.6505 -11.1624 -10.2149 -10.1871 -10.0710   0.4030   0.6346   0.6639
     7.7094   9.0532   9.4203  10.3514  11.1003  11.8558  12.4014  12.9650

          k =-0.5000-1.0000 0.0000 (  4284 PWs)   bands (ev):

   -26.6504 -11.1847 -10.2009 -10.2009 -10.0397   0.5241   0.5241   0.5732
     8.5061   8.5061   9.3922  10.1137  11.8152  11.8617  12.1031  12.8264

     the Fermi energy is     5.4006 ev

!    total energy              =     -84.05871650 Ry
     estimated scf accuracy    <          6.7E-13 Ry
     smearing contrib. (-TS)   =      -0.00000000 Ry
     internal energy E=F+TS    =     -84.05871650 Ry

     The total energy is F=E-TS. E is the sum of the following terms:
     one-electron contribution =     -30.76243635 Ry
     hartree contribution      =      19.55203826 Ry
     xc contribution           =     -13.95301135 Ry
     ewald contribution        =     -58.89530706 Ry

     convergence has been achieved in   8 iterations

     Writing all to output data dir out/mp-23251.save/
 
     init_run     :      0.48s CPU      0.54s WALL (       1 calls)
     electrons    :     35.51s CPU     37.11s WALL (       1 calls)

     Called by init_run:
     wfcinit      :      0.42s CPU      0.45s WALL (       1 calls)
     potinit      :      0.02s CPU      0.02s WALL (       1 calls)
     hinit0       :      0.01s CPU      0.04s WALL (       1 calls)

     Called by electrons:
     c_bands      :     33.85s CPU     35.40s WALL (       8 calls)
     sum_band     :      1.61s CPU      1.65s WALL (       8 calls)
     v_of_rho     :      0.05s CPU      0.05s WALL (       9 calls)
     mix_rho      :      0.01s CPU      0.01s WALL (       8 calls)

     Called by c_bands:
     init_us_2    :      0.21s CPU      0.23s WALL (    1224 calls)
     init_us_2:cp :      0.21s CPU      0.23s WALL (    1224 calls)
     paro_k       :     32.91s CPU     34.31s WALL (     576 calls)

     Called by paro_*:
     h_psi        :     27.40s CPU     28.50s WALL (   15668 calls)
     g_psi        :      0.44s CPU      0.46s WALL (  101473 calls)

     Called by h_psi:
     h_psi:calbec :      1.20s CPU      1.25s WALL (   15668 calls)
     vloc_psi     :     25.19s CPU     26.22s WALL (   15668 calls)
     add_vuspsi   :      0.82s CPU      0.86s WALL (   15668 calls)

     General routines
     calbec       :      1.17s CPU      1.21s WALL (   15668 calls)
     fft          :      0.02s CPU      0.05s WALL (      89 calls)
     ffts         :      0.00s CPU      0.00s WALL (       8 calls)
     fftw         :     24.12s CPU     25.07s WALL (  187662 calls)
 
     Parallel routines
 
     PWSCF        :     36.12s CPU     37.91s WALL

 
   This run was terminated on:  14:33:40   3Jan2024            

=------------------------------------------------------------------------------=
   JOB DONE.
=------------------------------------------------------------------------------=
