
     Program PWSCF v.7.1 starts on  3Jan2024 at 14:26: 5 

     This program is part of the open-source Quantum ESPRESSO suite
     for quantum simulation of materials; please cite
         "P. Giannozzi et al., J. Phys.:Condens. Matter 21 395502 (2009);
         "P. Giannozzi et al., J. Phys.:Condens. Matter 29 465901 (2017);
         "P. Giannozzi et al., J. Chem. Phys. 152 154105 (2020);
          URL http://www.quantum-espresso.org", 
     in publications or presentations arising from this work. More details at
     http://www.quantum-espresso.org/quote

     Parallel version (MPI), running on     8 processors

     MPI processes distributed on     1 nodes
     120527 MiB available memory on the printing compute node when the environment starts
 
     Reading input from pw_mp-66_scf_k3000_E65.in
Warning: card &CELL ignored
Warning: card / ignored

     Current dimensions of program PWSCF are:
     Max number of different atomic species (ntypx) = 10
     Max number of k-points (npk) =  40000
     Max angular momentum in pseudopotentials (lmaxx) =  4
 
     R & G space division:  proc/nbgrp/npool/nimage =       8
     Subspace diagonalization in iterative solution of the eigenvalue problem:
     a serial algorithm will be used

 
     Parallelization info
     --------------------
     sticks:   dense  smooth     PW     G-vecs:    dense   smooth      PW
     Min          51      51     15                  666      666     120
     Max          52      52     16                  667      667     123
     Sum         409     409    127                 5329     5329     965
 
     Using Slab Decomposition
 


     bravais-lattice index     =            2
     lattice parameter (alat)  =       6.7288  a.u.
     unit-cell volume          =      76.1657 (a.u.)^3
     number of atoms/cell      =            2
     number of atomic types    =            1
     number of electrons       =         8.00
     number of Kohn-Sham states=            8
     kinetic-energy cutoff     =      65.0000  Ry
     charge density cutoff     =     260.0000  Ry
     scf convergence threshold =      1.0E-10
     mixing beta               =       0.7000
     number of iterations used =            8  plain     mixing
     Exchange-correlation= PBE
                           (   1   4   3   4   0   0   0)

     celldm(1)=   6.728833  celldm(2)=   0.000000  celldm(3)=   0.000000
     celldm(4)=   0.000000  celldm(5)=   0.000000  celldm(6)=   0.000000

     crystal axes: (cart. coord. in units of alat)
               a(1) = (  -0.500000   0.000000   0.500000 )  
               a(2) = (   0.000000   0.500000   0.500000 )  
               a(3) = (  -0.500000   0.500000   0.000000 )  

     reciprocal axes: (cart. coord. in units 2 pi/alat)
               b(1) = ( -1.000000 -1.000000  1.000000 )  
               b(2) = (  1.000000  1.000000  1.000000 )  
               b(3) = ( -1.000000  1.000000 -1.000000 )  


     PseudoPot. # 1 for C  read from file:
     /usr/scratch4/magr4985/MG/devEb/pseudo/SG15/C.upf
     MD5 check sum: 3d2597e5eef38528f7293c089e88409c
     Pseudo is Norm-conserving, Zval =  4.0
     Generated using ONCVPSP code by D. R. Hamann
     Using radial grid of  602 points,  4 beta functions with: 
                l(1) =   0
                l(2) =   0
                l(3) =   1
                l(4) =   1

     atomic species   valence    mass     pseudopotential
        C              4.00    12.01070     C ( 1.00)

     48 Sym. Ops., with inversion, found (24 have fractional translation)



   Cartesian axes

     site n.     atom                  positions (alat units)
         1           C   tau(   1) = (  -0.5000000   0.5000000   0.0000000  )
         2           C   tau(   2) = (  -0.7500000   0.7500000   0.7500000  )

     number of k points=    72  Gaussian smearing, width (Ry)=  0.0005
                       cart. coord. in units 2pi/alat
        k(    1) = (   0.0000000   0.0000000   0.0000000), wk =   0.0011574
        k(    2) = (  -0.0833333   0.0833333  -0.0833333), wk =   0.0092593
        k(    3) = (  -0.1666667   0.1666667  -0.1666667), wk =   0.0092593
        k(    4) = (  -0.2500000   0.2500000  -0.2500000), wk =   0.0092593
        k(    5) = (  -0.3333333   0.3333333  -0.3333333), wk =   0.0092593
        k(    6) = (  -0.4166667   0.4166667  -0.4166667), wk =   0.0092593
        k(    7) = (   0.5000000  -0.5000000   0.5000000), wk =   0.0046296
        k(    8) = (   0.0000000   0.1666667   0.0000000), wk =   0.0069444
        k(    9) = (  -0.0833333   0.2500000  -0.0833333), wk =   0.0277778
        k(   10) = (  -0.1666667   0.3333333  -0.1666667), wk =   0.0277778
        k(   11) = (  -0.2500000   0.4166667  -0.2500000), wk =   0.0277778
        k(   12) = (  -0.3333333   0.5000000  -0.3333333), wk =   0.0277778
        k(   13) = (   0.5833333  -0.4166667   0.5833333), wk =   0.0277778
        k(   14) = (   0.5000000  -0.3333333   0.5000000), wk =   0.0277778
        k(   15) = (   0.4166667  -0.2500000   0.4166667), wk =   0.0277778
        k(   16) = (   0.3333333  -0.1666667   0.3333333), wk =   0.0277778
        k(   17) = (   0.2500000  -0.0833333   0.2500000), wk =   0.0277778
        k(   18) = (   0.1666667  -0.0000000   0.1666667), wk =   0.0138889
        k(   19) = (   0.0000000   0.3333333   0.0000000), wk =   0.0069444
        k(   20) = (  -0.0833333   0.4166667  -0.0833333), wk =   0.0277778
        k(   21) = (  -0.1666667   0.5000000  -0.1666667), wk =   0.0277778
        k(   22) = (  -0.2500000   0.5833333  -0.2500000), wk =   0.0277778
        k(   23) = (   0.6666667  -0.3333333   0.6666667), wk =   0.0277778
        k(   24) = (   0.5833333  -0.2500000   0.5833333), wk =   0.0277778
        k(   25) = (   0.5000000  -0.1666667   0.5000000), wk =   0.0277778
        k(   26) = (   0.4166667  -0.0833333   0.4166667), wk =   0.0277778
        k(   27) = (   0.3333333   0.0000000   0.3333333), wk =   0.0138889
        k(   28) = (   0.0000000   0.5000000   0.0000000), wk =   0.0069444
        k(   29) = (  -0.0833333   0.5833333  -0.0833333), wk =   0.0277778
        k(   30) = (  -0.1666667   0.6666667  -0.1666667), wk =   0.0277778
        k(   31) = (   0.7500000  -0.2500000   0.7500000), wk =   0.0277778
        k(   32) = (   0.6666667  -0.1666667   0.6666667), wk =   0.0277778
        k(   33) = (   0.5833333  -0.0833333   0.5833333), wk =   0.0277778
        k(   34) = (   0.5000000   0.0000000   0.5000000), wk =   0.0138889
        k(   35) = (   0.0000000   0.6666667   0.0000000), wk =   0.0069444
        k(   36) = (  -0.0833333   0.7500000  -0.0833333), wk =   0.0277778
        k(   37) = (   0.8333333  -0.1666667   0.8333333), wk =   0.0277778
        k(   38) = (   0.7500000  -0.0833333   0.7500000), wk =   0.0277778
        k(   39) = (   0.6666667  -0.0000000   0.6666667), wk =   0.0138889
        k(   40) = (   0.0000000   0.8333333   0.0000000), wk =   0.0069444
        k(   41) = (   0.9166667  -0.0833333   0.9166667), wk =   0.0277778
        k(   42) = (   0.8333333   0.0000000   0.8333333), wk =   0.0138889
        k(   43) = (   0.0000000  -1.0000000   0.0000000), wk =   0.0034722
        k(   44) = (  -0.1666667   0.3333333   0.0000000), wk =   0.0277778
        k(   45) = (  -0.2500000   0.4166667  -0.0833333), wk =   0.0555556
        k(   46) = (  -0.3333333   0.5000000  -0.1666667), wk =   0.0555556
        k(   47) = (   0.5833333  -0.4166667   0.7500000), wk =   0.0555556
        k(   48) = (   0.5000000  -0.3333333   0.6666667), wk =   0.0277778
        k(   49) = (  -0.1666667   0.5000000   0.0000000), wk =   0.0277778
        k(   50) = (  -0.2500000   0.5833333  -0.0833333), wk =   0.0555556
        k(   51) = (   0.6666667  -0.3333333   0.8333333), wk =   0.0555556
        k(   52) = (   0.5833333  -0.2500000   0.7500000), wk =   0.0555556
        k(   53) = (   0.5000000  -0.1666667   0.6666667), wk =   0.0555556
        k(   54) = (   0.4166667  -0.0833333   0.5833333), wk =   0.0555556
        k(   55) = (   0.3333333   0.0000000   0.5000000), wk =   0.0277778
        k(   56) = (  -0.1666667   0.6666667  -0.0000000), wk =   0.0277778
        k(   57) = (   0.7500000  -0.2500000   0.9166667), wk =   0.0555556
        k(   58) = (   0.6666667  -0.1666667   0.8333333), wk =   0.0555556
        k(   59) = (   0.5833333  -0.0833333   0.7500000), wk =   0.0555556
        k(   60) = (   0.5000000   0.0000000   0.6666667), wk =   0.0277778
        k(   61) = (   0.8333333  -0.1666667   1.0000000), wk =   0.0277778
        k(   62) = (   0.7500000  -0.0833333   0.9166667), wk =   0.0555556
        k(   63) = (   0.6666667   0.0000000   0.8333333), wk =   0.0277778
        k(   64) = (  -0.1666667  -1.0000000  -0.0000000), wk =   0.0138889
        k(   65) = (   0.6666667  -0.3333333   1.0000000), wk =   0.0277778
        k(   66) = (   0.5833333  -0.2500000   0.9166667), wk =   0.0555556
        k(   67) = (   0.5000000  -0.1666667   0.8333333), wk =   0.0277778
        k(   68) = (   0.6666667  -0.1666667   1.0000000), wk =   0.0277778
        k(   69) = (   0.5833333  -0.0833333   0.9166667), wk =   0.0555556
        k(   70) = (   0.5000000   0.0000000   0.8333333), wk =   0.0277778
        k(   71) = (  -0.3333333  -1.0000000   0.0000000), wk =   0.0138889
        k(   72) = (  -0.5000000  -1.0000000   0.0000000), wk =   0.0069444

     Dense  grid:     5329 G-vectors     FFT dimensions: (  32,  32,  32)

     Estimated max dynamical RAM per process >       1.75 MB

     Estimated total dynamical RAM >      14.02 MB

     Initial potential from superposition of free atoms

     starting charge       7.9861, renormalised to       8.0000
     Starting wfcs are random

     total cpu time spent up to now is        0.2 secs

     Self-consistent Calculation

     iteration #  1     ecut=    65.00 Ry     beta= 0.70
     Davidson diagonalization with overlap
     c_bands:  1 eigenvalues not converged
     c_bands:  1 eigenvalues not converged
     c_bands:  1 eigenvalues not converged
     ethr =  5.00E-06,  avg # of iterations = 15.6

     total cpu time spent up to now is        1.1 secs

     total energy              =     -22.77774040 Ry
     estimated scf accuracy    <       0.11724124 Ry

     iteration #  2     ecut=    65.00 Ry     beta= 0.70
     Davidson diagonalization with overlap
     ethr =  1.47E-03,  avg # of iterations =  2.0

     total cpu time spent up to now is        1.2 secs

     total energy              =     -22.78540590 Ry
     estimated scf accuracy    <       0.00238312 Ry

     iteration #  3     ecut=    65.00 Ry     beta= 0.70
     Davidson diagonalization with overlap
     ethr =  2.98E-05,  avg # of iterations =  3.9

     total cpu time spent up to now is        1.4 secs

     total energy              =     -22.78584539 Ry
     estimated scf accuracy    <       0.00008659 Ry

     iteration #  4     ecut=    65.00 Ry     beta= 0.70
     Davidson diagonalization with overlap
     ethr =  1.08E-06,  avg # of iterations =  3.0

     total cpu time spent up to now is        1.6 secs

     total energy              =     -22.78585150 Ry
     estimated scf accuracy    <       0.00000167 Ry

     iteration #  5     ecut=    65.00 Ry     beta= 0.70
     Davidson diagonalization with overlap
     ethr =  2.08E-08,  avg # of iterations =  3.5

     total cpu time spent up to now is        1.9 secs

     total energy              =     -22.78585168 Ry
     estimated scf accuracy    <       0.00000003 Ry

     iteration #  6     ecut=    65.00 Ry     beta= 0.70
     Davidson diagonalization with overlap
     ethr =  3.17E-10,  avg # of iterations =  3.9

     total cpu time spent up to now is        2.1 secs

     End of self-consistent calculation

          k = 0.0000 0.0000 0.0000 (   645 PWs)   bands (ev):

    -8.0982  13.4109  13.4109  13.4109  19.0237  19.0237  19.0237  26.8678

          k =-0.0833 0.0833-0.0833 (   673 PWs)   bands (ev):

    -7.9055  12.1806  13.0853  13.0853  19.4459  19.4459  19.7414  27.0260

          k =-0.1667 0.1667-0.1667 (   661 PWs)   bands (ev):

    -7.3297   9.6485  12.3819  12.3819  20.3690  20.3690  20.8498  27.4802

          k =-0.2500 0.2500-0.2500 (   664 PWs)   bands (ev):

    -6.3792   6.8095  11.6561  11.6561  21.2292  21.2292  21.6241  28.1211

          k =-0.3333 0.3333-0.3333 (   658 PWs)   bands (ev):

    -5.0748   4.0245  11.0805  11.0805  21.7216  21.7216  22.0686  28.7172

          k =-0.4167 0.4167-0.4167 (   667 PWs)   bands (ev):

    -3.4908   1.5101  10.7194  10.7194  21.8834  21.8834  22.2936  29.0553

          k = 0.5000-0.5000 0.5000 (   652 PWs)   bands (ev):

    -2.2977   0.0009  10.5995  10.5995  21.9080  21.9080  22.3628  29.1518

          k = 0.0000 0.1667 0.0000 (   669 PWs)   bands (ev):

    -7.8413  12.4945  12.4945  12.7956  18.8301  20.1563  20.1563  26.9796

          k =-0.0833 0.2500-0.0833 (   672 PWs)   bands (ev):

    -7.3933  10.5106  11.6890  12.4631  19.1275  21.2311  21.2540  27.0376

          k =-0.1667 0.3333-0.1667 (   668 PWs)   bands (ev):

    -6.5677   7.8170  10.9657  11.7979  19.9840  22.1350  22.1808  27.2209

          k =-0.2500 0.4167-0.2500 (   666 PWs)   bands (ev):

    -5.3799   5.0403  10.4578  11.0478  20.7663  22.6560  22.6871  27.7002

          k =-0.3333 0.5000-0.3333 (   673 PWs)   bands (ev):

    -3.8763   2.4373  10.2147  10.4027  21.2287  22.7401  22.9189  28.4571

          k = 0.5833-0.4167 0.5833 (   672 PWs)   bands (ev):

    -2.3452   0.3915   9.9511  10.2471  21.5239  22.5429  23.0120  29.0422

          k = 0.5000-0.3333 0.5000 (   670 PWs)   bands (ev):

    -2.7979   0.9496   9.7394  10.5420  21.8079  22.2482  22.9696  29.0687

          k = 0.4167-0.2500 0.4167 (   669 PWs)   bands (ev):

    -4.4070   3.2772   9.7941  11.0668  21.8440  22.0479  22.7740  28.5541

          k = 0.3333-0.1667 0.3333 (   664 PWs)   bands (ev):

    -5.8148   5.9653  10.1238  11.7648  21.2013  22.0389  22.3204  27.8898

          k = 0.2500-0.0833 0.2500 (   671 PWs)   bands (ev):

    -6.8843   8.7456  10.7193  12.5189  20.3155  21.4558  21.6016  27.4410

          k = 0.1667-0.0000 0.1667 (   672 PWs)   bands (ev):

    -7.5851  11.1649  11.6604  13.0817  19.5424  20.3517  20.6949  27.1839

          k = 0.0000 0.3333 0.0000 (   673 PWs)   bands (ev):

    -7.0742  10.8268  10.8268  11.1753  18.3730  22.4634  22.4634  26.2041

          k =-0.0833 0.4167-0.0833 (   672 PWs)   bands (ev):

    -6.3767   8.7427  10.0724  10.7388  18.6355  23.5651  23.6071  25.4090

          k =-0.1667 0.5000-0.1667 (   675 PWs)   bands (ev):

    -5.3131   6.1780   9.5586   9.9792  19.4650  24.2505  24.3026  25.2616

          k =-0.2500 0.5833-0.2500 (   675 PWs)   bands (ev):

    -3.9158   3.6203   9.1319   9.3391  20.1336  24.4407  24.5939  26.1591

          k = 0.6667-0.3333 0.6667 (   678 PWs)   bands (ev):

    -2.3266   1.3721   8.4118   9.4262  20.5594  24.1716  24.7184  27.7478

          k = 0.5833-0.2500 0.5833 (   675 PWs)   bands (ev):

    -1.8926   0.8517   7.9242   9.8063  20.9989  23.6795  24.6987  28.8928

          k = 0.5000-0.1667 0.5000 (   677 PWs)   bands (ev):

    -3.3985   2.8545   7.7236  10.4352  21.5260  23.0105  24.5179  28.4000

          k = 0.4167-0.0833 0.4167 (   668 PWs)   bands (ev):

    -4.8858   5.3644   7.8557  11.2309  21.9902  22.1088  23.9693  27.4388

          k = 0.3333 0.0000 0.3333 (   662 PWs)   bands (ev):

    -6.0641   7.7100   8.5870  12.0263  21.0665  22.0879  22.8104  27.2016

          k = 0.0000 0.5000 0.0000 (   681 PWs)   bands (ev):

    -5.8087   8.9014   9.2703   9.2703  17.8938  23.7372  25.0299  25.0299

          k =-0.0833 0.5833-0.0833 (   674 PWs)   bands (ev):

    -4.8735   6.9790   8.6575   8.7075  18.2239  22.8338  26.0541  26.0542

          k =-0.1667 0.6667-0.1667 (   675 PWs)   bands (ev):

    -3.5960   4.7709   7.6491   8.4475  19.0139  23.1751  26.4496  26.5882

          k = 0.7500-0.2500 0.7500 (   678 PWs)   bands (ev):

    -2.0597   2.6075   6.6551   8.5119  19.5424  24.9042  26.2597  26.8023

          k = 0.6667-0.1667 0.6667 (   685 PWs)   bands (ev):

    -0.9563   1.3130   5.9026   8.8913  20.0179  25.6514  26.7361  27.3577

          k = 0.5833-0.0833 0.5833 (   680 PWs)   bands (ev):

    -2.0987   2.7435   5.4953   9.5450  20.6516  24.7066  26.6702  28.3347

          k = 0.5000 0.0000 0.5000 (   676 PWs)   bands (ev):

    -3.6194   4.7026   5.7804  10.3841  21.3950  23.4508  25.8225  27.3989

          k = 0.0000 0.6667 0.0000 (   680 PWs)   bands (ev):

    -4.0684   6.2342   8.0766   8.0766  17.6113  21.2215  27.4910  27.4910

          k =-0.0833 0.7500-0.0833 (   678 PWs)   bands (ev):

    -2.9177   4.7243   7.1712   7.7469  18.0667  20.7121  28.2667  28.3327

          k = 0.8333-0.1667 0.8333 (   674 PWs)   bands (ev):

    -1.4781   3.1868   5.7317   7.7480  18.7316  21.8271  28.2774  28.6699

          k = 0.7500-0.0833 0.7500 (   680 PWs)   bands (ev):

    -0.0883   1.9013   4.4649   8.0783  19.1906  24.2891  27.6072  28.7109

          k = 0.6667-0.0000 0.6667 (   680 PWs)   bands (ev):

    -0.6517   2.4645   4.0024   8.7039  19.8169  26.3659  27.0010  28.4650

          k = 0.0000 0.8333 0.0000 (   676 PWs)   bands (ev):

    -1.8958   3.4056   7.3356   7.3357  17.6807  19.3727  29.4499  29.4499

          k = 0.9167-0.0833 0.9167 (   674 PWs)   bands (ev):

    -0.5715   2.0525   6.5334   7.2544  18.2389  19.3729  29.7264  29.8676

          k = 0.8333 0.0000 0.8333 (   678 PWs)   bands (ev):

     0.7358   1.0957   5.1181   7.5105  18.6408  21.3682  29.0682  29.6686

          k = 0.0000-1.0000 0.0000 (   692 PWs)   bands (ev):

     0.6355   0.6355   7.0843   7.0843  18.2272  18.2272  30.2498  30.2498

          k =-0.1667 0.3333 0.0000 (   675 PWs)   bands (ev):

    -6.8205   9.4031  10.0752  12.0621  19.3664  22.2274  22.4150  26.6715

          k =-0.2500 0.4167-0.0833 (   666 PWs)   bands (ev):

    -5.8755   7.0202   9.2204  11.3991  20.2329  22.7331  23.5285  26.5043

          k =-0.3333 0.5000-0.1667 (   669 PWs)   bands (ev):

    -4.5810   4.3758   8.8270  10.6210  21.0589  22.7655  24.2065  27.0966

          k = 0.5833-0.4167 0.7500 (   671 PWs)   bands (ev):

    -3.0141   1.9360   8.6952   9.9859  21.5094  22.5821  24.5077  28.2473

          k = 0.5000-0.3333 0.6667 (   674 PWs)   bands (ev):

    -1.8453   0.4675   8.6958   9.7203  21.6452  22.4749  24.5921  28.9165

          k =-0.1667 0.5000 0.0000 (   668 PWs)   bands (ev):

    -5.5601   7.6596   8.5723  10.1672  18.9345  24.2488  24.4762  25.0219

          k =-0.2500 0.5833-0.0833 (   672 PWs)   bands (ev):

    -4.3885   5.5161   7.8130   9.4310  19.8525  24.0820  24.7259  26.1070

          k = 0.6667-0.3333 0.8333 (   673 PWs)   bands (ev):

    -2.9126   3.1637   7.4182   8.8127  20.5527  24.1151  25.6004  26.7396

          k = 0.5833-0.2500 0.7500 (   678 PWs)   bands (ev):

    -1.4324   1.2589   7.0147   8.7144  20.9902  23.8283  26.5004  27.7298

          k = 0.5000-0.1667 0.6667 (   675 PWs)   bands (ev):

    -1.8772   1.8107   6.6781   9.1241  21.4764  23.3260  26.3939  28.2750

          k = 0.4167-0.0833 0.5833 (   673 PWs)   bands (ev):

    -3.4409   3.9910   6.6029   9.8493  22.0365  22.5462  25.9893  26.9882

          k = 0.3333 0.0000 0.5000 (   667 PWs)   bands (ev):

    -4.8216   6.1315   7.1531  10.7006  21.2771  22.6625  25.0780  26.1541

          k =-0.1667 0.6667-0.0000 (   673 PWs)   bands (ev):

    -3.8303   5.7845   7.4229   8.2164  18.6644  22.0569  26.4907  27.5208

          k = 0.7500-0.2500 0.9167 (   672 PWs)   bands (ev):

    -2.4680   4.0969   6.4104   7.6883  19.5997  22.5426  26.4632  28.3231

          k = 0.6667-0.1667 0.8333 (   678 PWs)   bands (ev):

    -0.9408   2.3233   5.4368   7.7161  20.1481  24.4981  26.1577  28.3655

          k = 0.5833-0.0833 0.7500 (   677 PWs)   bands (ev):

    -0.5892   2.0002   4.7581   8.1781  20.6694  25.3348  27.0856  27.7930

          k = 0.5000 0.0000 0.6667 (   676 PWs)   bands (ev):

    -2.0181   3.5062   4.7933   8.9406  21.3644  24.1038  27.0059  27.8003

          k = 0.8333-0.1667 1.0000 (   674 PWs)   bands (ev):

    -1.6804   3.4102   6.7342   7.0026  18.7216  20.3107  28.4963  29.3705

          k = 0.7500-0.0833 0.9167 (   681 PWs)   bands (ev):

    -0.2121   2.1733   5.3628   6.9721  19.5256  21.5778  28.2654  29.3004

          k = 0.6667 0.0000 0.8333 (   684 PWs)   bands (ev):

     0.5430   1.7068   4.1728   7.4184  19.9962  24.2546  27.3515  28.4885

          k =-0.1667-1.0000-0.0000 (   674 PWs)   bands (ev):

     0.7959   0.7959   6.5680   6.5680  19.2320  19.2320  29.7350  29.7350

          k = 0.6667-0.3333 1.0000 (   670 PWs)   bands (ev):

    -3.1293   4.7143   6.0760   8.5883  21.1570  23.4533  24.9145  27.6179

          k = 0.5833-0.2500 0.9167 (   675 PWs)   bands (ev):

    -1.6218   2.9598   5.5959   7.7947  22.1263  23.3937  25.6844  28.2438

          k = 0.5000-0.1667 0.8333 (   682 PWs)   bands (ev):

    -0.5182   1.6726   5.5712   7.4608  22.2478  23.5108  27.2157  27.4607

          k = 0.6667-0.1667 1.0000 (   676 PWs)   bands (ev):

    -1.0654   3.2013   5.4973   6.5945  21.2448  22.5524  26.1764  28.9164

          k = 0.5833-0.0833 0.9167 (   681 PWs)   bands (ev):

     0.3112   2.0962   4.7126   6.3006  22.0697  24.2727  25.8798  27.6458

          k = 0.5000 0.0000 0.8333 (   682 PWs)   bands (ev):

    -0.1889   2.5219   4.4240   6.8384  22.5292  24.3278  26.1200  27.2861

          k =-0.3333-1.0000 0.0000 (   682 PWs)   bands (ev):

     1.1845   1.1845   5.5710   5.5710  21.6872  21.6872  27.9715  27.9715

          k =-0.5000-1.0000 0.0000 (   684 PWs)   bands (ev):

     1.4348   1.4348   5.0552   5.0552  24.0781  24.0781  25.7969  25.7969

     the Fermi energy is    15.8849 ev

!    total energy              =     -22.78585169 Ry
     estimated scf accuracy    <          5.6E-11 Ry
     smearing contrib. (-TS)   =      -0.00000000 Ry
     internal energy E=F+TS    =     -22.78585169 Ry

     The total energy is F=E-TS. E is the sum of the following terms:
     one-electron contribution =       8.02364928 Ry
     hartree contribution      =       1.93367300 Ry
     xc contribution           =      -7.12542593 Ry
     ewald contribution        =     -25.61774804 Ry

     convergence has been achieved in   6 iterations

     Writing all to output data dir out/mp-66.save/
 
     init_run     :      0.10s CPU      0.11s WALL (       1 calls)
     electrons    :      1.75s CPU      1.92s WALL (       1 calls)

     Called by init_run:
     wfcinit      :      0.08s CPU      0.08s WALL (       1 calls)
     potinit      :      0.01s CPU      0.02s WALL (       1 calls)
     hinit0       :      0.00s CPU      0.01s WALL (       1 calls)

     Called by electrons:
     c_bands      :      1.60s CPU      1.76s WALL (       6 calls)
     sum_band     :      0.13s CPU      0.15s WALL (       6 calls)
     v_of_rho     :      0.01s CPU      0.01s WALL (       7 calls)
     mix_rho      :      0.00s CPU      0.00s WALL (       6 calls)

     Called by c_bands:
     init_us_2    :      0.02s CPU      0.02s WALL (     936 calls)
     init_us_2:cp :      0.02s CPU      0.02s WALL (     936 calls)
     cegterg      :      1.56s CPU      1.69s WALL (     432 calls)

     Called by *egterg:
     cdiaghg      :      0.26s CPU      0.28s WALL (    2722 calls)
     h_psi        :      1.21s CPU      1.31s WALL (    2794 calls)
     g_psi        :      0.01s CPU      0.01s WALL (    2290 calls)

     Called by h_psi:
     h_psi:calbec :      0.05s CPU      0.05s WALL (    2794 calls)
     vloc_psi     :      1.12s CPU      1.22s WALL (    2794 calls)
     add_vuspsi   :      0.02s CPU      0.02s WALL (    2794 calls)

     General routines
     calbec       :      0.04s CPU      0.04s WALL (    2794 calls)
     fft          :      0.01s CPU      0.01s WALL (      69 calls)
     ffts         :      0.00s CPU      0.00s WALL (       6 calls)
     fftw         :      1.08s CPU      1.17s WALL (   35944 calls)
 
     Parallel routines
 
     PWSCF        :      1.90s CPU      2.30s WALL

 
   This run was terminated on:  14:26: 7   3Jan2024            

=------------------------------------------------------------------------------=
   JOB DONE.
=------------------------------------------------------------------------------=
