
     Program PWSCF v.7.1 starts on  3Jan2024 at 14:29: 3 

     This program is part of the open-source Quantum ESPRESSO suite
     for quantum simulation of materials; please cite
         "P. Giannozzi et al., J. Phys.:Condens. Matter 21 395502 (2009);
         "P. Giannozzi et al., J. Phys.:Condens. Matter 29 465901 (2017);
         "P. Giannozzi et al., J. Chem. Phys. 152 154105 (2020);
          URL http://www.quantum-espresso.org", 
     in publications or presentations arising from this work. More details at
     http://www.quantum-espresso.org/quote

     Parallel version (MPI), running on     8 processors

     MPI processes distributed on     1 nodes
     120137 MiB available memory on the printing compute node when the environment starts
 
     Reading input from pw_mp-463_nscf_k3000_E130.in
Warning: card &IONS ignored
Warning: card / ignored
Warning: card &CELL ignored
Warning: card / ignored

     Current dimensions of program PWSCF are:
     Max number of different atomic species (ntypx) = 10
     Max number of k-points (npk) =  40000
     Max angular momentum in pseudopotentials (lmaxx) =  4

     Atomic positions and unit cell read from directory:
     out/mp-463.save/
     Atomic positions from file used, from input discarded
 
 
     R & G space division:  proc/nbgrp/npool/nimage =       8
     Subspace diagonalization in iterative solution of the eigenvalue problem:
     a serial algorithm will be used

 
     Parallelization info
     --------------------
     sticks:   dense  smooth     PW     G-vecs:    dense   smooth      PW
     Min         224     224     63                 6327     6327     972
     Max         226     226     64                 6329     6329     976
     Sum        1801    1801    511                50629    50629    7799
 
     Using Slab Decomposition
 


     bravais-lattice index     =            2
     lattice parameter (alat)  =      10.0322  a.u.
     unit-cell volume          =     252.4249 (a.u.)^3
     number of atoms/cell      =            2
     number of atomic types    =            2
     number of electrons       =        16.00
     number of Kohn-Sham states=           16
     kinetic-energy cutoff     =     130.0000  Ry
     charge density cutoff     =     520.0000  Ry
     Exchange-correlation= PBE
                           (   1   4   3   4   0   0   0)

     celldm(1)=  10.032228  celldm(2)=   0.000000  celldm(3)=   0.000000
     celldm(4)=   0.000000  celldm(5)=   0.000000  celldm(6)=   0.000000

     crystal axes: (cart. coord. in units of alat)
               a(1) = (  -0.500000   0.000000   0.500000 )  
               a(2) = (   0.000000   0.500000   0.500000 )  
               a(3) = (  -0.500000   0.500000   0.000000 )  

     reciprocal axes: (cart. coord. in units 2 pi/alat)
               b(1) = ( -1.000000 -1.000000  1.000000 )  
               b(2) = (  1.000000  1.000000  1.000000 )  
               b(3) = ( -1.000000  1.000000 -1.000000 )  


     PseudoPot. # 1 for F  read from file:
     /usr/scratch4/magr4985/MG/devEb/pseudo/SG15/F.upf
     MD5 check sum: 24dce47753c7134a0159dc9c6586d93a
     Pseudo is Norm-conserving, Zval =  7.0
     Generated using ONCVPSP code by D. R. Hamann
     Using radial grid of  602 points,  4 beta functions with: 
                l(1) =   0
                l(2) =   0
                l(3) =   1
                l(4) =   1

     PseudoPot. # 2 for K  read from file:
     /usr/scratch4/magr4985/MG/devEb/pseudo/SG15/K.upf
     MD5 check sum: 546a68abc2c0296de6abd828b0bae2fd
     Pseudo is Norm-conserving, Zval =  9.0
     Generated using ONCVPSP code by D. R. Hamann
     Using radial grid of  602 points,  6 beta functions with: 
                l(1) =   0
                l(2) =   0
                l(3) =   1
                l(4) =   1
                l(5) =   2
                l(6) =   2

     atomic species   valence    mass     pseudopotential
        F              7.00    18.99840     F ( 1.00)
        K              9.00    39.09830     K ( 1.00)

     48 Sym. Ops., with inversion, found



   Cartesian axes

     site n.     atom                  positions (alat units)
         1           K   tau(   1) = (   0.0000000   0.0000000   0.0000000  )
         2           F   tau(   2) = (  -0.5000000   0.5000000   0.5000000  )

     number of k points=    72  Gaussian smearing, width (Ry)=  0.0005
                       cart. coord. in units 2pi/alat
        k(    1) = (   0.0000000   0.0000000   0.0000000), wk =   0.0011574
        k(    2) = (  -0.0833333   0.0833333  -0.0833333), wk =   0.0092593
        k(    3) = (  -0.1666667   0.1666667  -0.1666667), wk =   0.0092593
        k(    4) = (  -0.2500000   0.2500000  -0.2500000), wk =   0.0092593
        k(    5) = (  -0.3333333   0.3333333  -0.3333333), wk =   0.0092593
        k(    6) = (  -0.4166667   0.4166667  -0.4166667), wk =   0.0092593
        k(    7) = (   0.5000000  -0.5000000   0.5000000), wk =   0.0046296
        k(    8) = (   0.0000000   0.1666667   0.0000000), wk =   0.0069444
        k(    9) = (  -0.0833333   0.2500000  -0.0833333), wk =   0.0277778
        k(   10) = (  -0.1666667   0.3333333  -0.1666667), wk =   0.0277778
        k(   11) = (  -0.2500000   0.4166667  -0.2500000), wk =   0.0277778
        k(   12) = (  -0.3333333   0.5000000  -0.3333333), wk =   0.0277778
        k(   13) = (   0.5833333  -0.4166667   0.5833333), wk =   0.0277778
        k(   14) = (   0.5000000  -0.3333333   0.5000000), wk =   0.0277778
        k(   15) = (   0.4166667  -0.2500000   0.4166667), wk =   0.0277778
        k(   16) = (   0.3333333  -0.1666667   0.3333333), wk =   0.0277778
        k(   17) = (   0.2500000  -0.0833333   0.2500000), wk =   0.0277778
        k(   18) = (   0.1666667  -0.0000000   0.1666667), wk =   0.0138889
        k(   19) = (   0.0000000   0.3333333   0.0000000), wk =   0.0069444
        k(   20) = (  -0.0833333   0.4166667  -0.0833333), wk =   0.0277778
        k(   21) = (  -0.1666667   0.5000000  -0.1666667), wk =   0.0277778
        k(   22) = (  -0.2500000   0.5833333  -0.2500000), wk =   0.0277778
        k(   23) = (   0.6666667  -0.3333333   0.6666667), wk =   0.0277778
        k(   24) = (   0.5833333  -0.2500000   0.5833333), wk =   0.0277778
        k(   25) = (   0.5000000  -0.1666667   0.5000000), wk =   0.0277778
        k(   26) = (   0.4166667  -0.0833333   0.4166667), wk =   0.0277778
        k(   27) = (   0.3333333   0.0000000   0.3333333), wk =   0.0138889
        k(   28) = (   0.0000000   0.5000000   0.0000000), wk =   0.0069444
        k(   29) = (  -0.0833333   0.5833333  -0.0833333), wk =   0.0277778
        k(   30) = (  -0.1666667   0.6666667  -0.1666667), wk =   0.0277778
        k(   31) = (   0.7500000  -0.2500000   0.7500000), wk =   0.0277778
        k(   32) = (   0.6666667  -0.1666667   0.6666667), wk =   0.0277778
        k(   33) = (   0.5833333  -0.0833333   0.5833333), wk =   0.0277778
        k(   34) = (   0.5000000   0.0000000   0.5000000), wk =   0.0138889
        k(   35) = (   0.0000000   0.6666667   0.0000000), wk =   0.0069444
        k(   36) = (  -0.0833333   0.7500000  -0.0833333), wk =   0.0277778
        k(   37) = (   0.8333333  -0.1666667   0.8333333), wk =   0.0277778
        k(   38) = (   0.7500000  -0.0833333   0.7500000), wk =   0.0277778
        k(   39) = (   0.6666667  -0.0000000   0.6666667), wk =   0.0138889
        k(   40) = (   0.0000000   0.8333333   0.0000000), wk =   0.0069444
        k(   41) = (   0.9166667  -0.0833333   0.9166667), wk =   0.0277778
        k(   42) = (   0.8333333   0.0000000   0.8333333), wk =   0.0138889
        k(   43) = (   0.0000000  -1.0000000   0.0000000), wk =   0.0034722
        k(   44) = (  -0.1666667   0.3333333   0.0000000), wk =   0.0277778
        k(   45) = (  -0.2500000   0.4166667  -0.0833333), wk =   0.0555556
        k(   46) = (  -0.3333333   0.5000000  -0.1666667), wk =   0.0555556
        k(   47) = (   0.5833333  -0.4166667   0.7500000), wk =   0.0555556
        k(   48) = (   0.5000000  -0.3333333   0.6666667), wk =   0.0277778
        k(   49) = (  -0.1666667   0.5000000   0.0000000), wk =   0.0277778
        k(   50) = (  -0.2500000   0.5833333  -0.0833333), wk =   0.0555556
        k(   51) = (   0.6666667  -0.3333333   0.8333333), wk =   0.0555556
        k(   52) = (   0.5833333  -0.2500000   0.7500000), wk =   0.0555556
        k(   53) = (   0.5000000  -0.1666667   0.6666667), wk =   0.0555556
        k(   54) = (   0.4166667  -0.0833333   0.5833333), wk =   0.0555556
        k(   55) = (   0.3333333   0.0000000   0.5000000), wk =   0.0277778
        k(   56) = (  -0.1666667   0.6666667  -0.0000000), wk =   0.0277778
        k(   57) = (   0.7500000  -0.2500000   0.9166667), wk =   0.0555556
        k(   58) = (   0.6666667  -0.1666667   0.8333333), wk =   0.0555556
        k(   59) = (   0.5833333  -0.0833333   0.7500000), wk =   0.0555556
        k(   60) = (   0.5000000   0.0000000   0.6666667), wk =   0.0277778
        k(   61) = (   0.8333333  -0.1666667   1.0000000), wk =   0.0277778
        k(   62) = (   0.7500000  -0.0833333   0.9166667), wk =   0.0555556
        k(   63) = (   0.6666667   0.0000000   0.8333333), wk =   0.0277778
        k(   64) = (  -0.1666667  -1.0000000  -0.0000000), wk =   0.0138889
        k(   65) = (   0.6666667  -0.3333333   1.0000000), wk =   0.0277778
        k(   66) = (   0.5833333  -0.2500000   0.9166667), wk =   0.0555556
        k(   67) = (   0.5000000  -0.1666667   0.8333333), wk =   0.0277778
        k(   68) = (   0.6666667  -0.1666667   1.0000000), wk =   0.0277778
        k(   69) = (   0.5833333  -0.0833333   0.9166667), wk =   0.0555556
        k(   70) = (   0.5000000   0.0000000   0.8333333), wk =   0.0277778
        k(   71) = (  -0.3333333  -1.0000000   0.0000000), wk =   0.0138889
        k(   72) = (  -0.5000000  -1.0000000   0.0000000), wk =   0.0069444

     Dense  grid:    50629 G-vectors     FFT dimensions: (  54,  54,  54)

     Estimated max dynamical RAM per process >      21.29 MB

     Estimated total dynamical RAM >     170.29 MB

     The potential is recalculated from file :
     out/mp-463.save/charge-density

     Starting wfcs are random

     Band Structure Calculation
     Davidson diagonalization with overlap

     ethr =  5.00E-06,  avg # of iterations = 20.4

     total cpu time spent up to now is       10.3 secs

     End of band structure calculation

          k = 0.0000 0.0000 0.0000 (  6303 PWs)   bands (ev):

   -24.4127 -16.9545  -7.6507  -7.6507  -7.6507   1.6400   1.6400   1.6400
     7.9536  12.3977  12.3977  12.3977  14.0519  14.0519  18.7150  26.2007

          k =-0.0833 0.0833-0.0833 (  6306 PWs)   bands (ev):

   -24.4059 -16.9609  -7.6701  -7.6533  -7.6533   1.5735   1.6148   1.6148
     8.1533  12.2760  12.4929  12.4929  14.1155  14.1155  19.0557  25.2321

          k =-0.1667 0.1667-0.1667 (  6315 PWs)   bands (ev):

   -24.3872 -16.9786  -7.7228  -7.6603  -7.6603   1.4043   1.5465   1.5465
     8.7043  12.0207  12.7580  12.7580  14.3070  14.3070  19.8470  23.7589

          k =-0.2500 0.2500-0.2500 (  6312 PWs)   bands (ev):

   -24.3615 -17.0030  -7.7942  -7.6697  -7.6697   1.1963   1.4552   1.4552
     9.4782  11.8218  13.1243  13.1243  14.6360  14.6360  20.2492  22.7519

          k =-0.3333 0.3333-0.3333 (  6327 PWs)   bands (ev):

   -24.3355 -17.0277  -7.8649  -7.6790  -7.6790   1.0080   1.3657   1.3657
    10.2517  11.8403  13.4752  13.4752  15.1144  15.1144  19.3924  21.8825

          k =-0.4167 0.4167-0.4167 (  6321 PWs)   bands (ev):

   -24.3163 -17.0460  -7.9162  -7.6858  -7.6858   0.8798   1.3014   1.3014
    10.7043  12.1743  13.7074  13.7074  15.6540  15.6540  18.3194  20.7553

          k = 0.5000-0.5000 0.5000 (  6322 PWs)   bands (ev):

   -24.3092 -17.0527  -7.9349  -7.6882  -7.6882   0.8347   1.2781   1.2781
    10.8147  12.4262  13.7856  13.7856  15.9272  15.9272  17.8486  20.2839

          k = 0.0000 0.1667 0.0000 (  6303 PWs)   bands (ev):

   -24.4037 -16.9626  -7.6656  -7.6656  -7.6562   1.5126   1.6312   1.6312
     8.2133  12.1296  12.5808  12.5808  14.1213  14.1419  19.1677  25.1713

          k =-0.0833 0.2500-0.0833 (  6305 PWs)   bands (ev):

   -24.3891 -16.9752  -7.7066  -7.6811  -7.6596   1.3756   1.5851   1.5992
     8.6323  11.8724  12.8004  12.8393  14.2588  14.2741  19.8185  23.9211

          k =-0.1667 0.3333-0.1667 (  6301 PWs)   bands (ev):

   -24.3659 -16.9956  -7.7750  -7.6956  -7.6691   1.2147   1.4886   1.5285
     9.3204  11.6651  13.1009  13.1979  14.5165  14.5529  20.4176  22.5785

          k =-0.2500 0.4167-0.2500 (  6307 PWs)   bands (ev):

   -24.3401 -17.0184  -7.8494  -7.7050  -7.6849   1.0624   1.3858   1.4393
    10.1047  11.6243  13.4141  13.5405  14.9063  15.0239  19.7282  21.8316

          k =-0.3333 0.5000-0.3333 (  6316 PWs)   bands (ev):

   -24.3188 -17.0375  -7.9097  -7.7070  -7.7030   0.9454   1.3134   1.3558
    10.6716  11.8884  13.6385  13.7755  15.4498  15.5791  18.5101  20.7703

          k = 0.5833-0.4167 0.5833 (  6319 PWs)   bands (ev):

   -24.3078 -17.0476  -7.9402  -7.7186  -7.7011   0.8840   1.2917   1.2994
    10.8620  12.2624  13.7426  13.8746  15.8945  15.9512  17.7426  20.3033

          k = 0.5000-0.3333 0.5000 (  6326 PWs)   bands (ev):

   -24.3100 -17.0458  -7.9332  -7.7273  -7.6888   0.8911   1.2839   1.3236
    10.8312  12.1927  13.7260  13.8240  15.6807  15.9900  17.9017  20.2174

          k = 0.4167-0.2500 0.4167 (  6314 PWs)   bands (ev):

   -24.3251 -17.0327  -7.8903  -7.7271  -7.6734   0.9690   1.3132   1.3976
    10.5286  11.8222  13.6072  13.6102  15.1905  15.5060  18.8725  20.8382

          k = 0.3333-0.1667 0.3333 (  6312 PWs)   bands (ev):

   -24.3486 -17.0120  -7.8226  -7.7180  -7.6591   1.1079   1.3804   1.4914
     9.8520  11.6900  13.2514  13.3968  14.7501  14.9073  20.0869  21.5935

          k = 0.2500-0.0833 0.2500 (  6292 PWs)   bands (ev):

   -24.3743 -16.9893  -7.7480  -7.7022  -7.6495   1.2838   1.4686   1.5760
     9.0767  11.8169  12.8726  13.0840  14.4347  14.4601  20.2781  22.6207

          k = 0.1667-0.0000 0.1667 (  6303 PWs)   bands (ev):

   -24.3952 -16.9706  -7.6892  -7.6813  -7.6474   1.4580   1.5548   1.6215
     8.4638  12.0657  12.5967  12.7440  14.2106  14.2243  19.5495  24.1821

          k = 0.0000 0.3333 0.0000 (  6306 PWs)   bands (ev):

   -24.3794 -16.9800  -7.7065  -7.7065  -7.6974   1.2710   1.6114   1.6114
     8.8817  11.5252  13.0975  13.0975  14.3089  14.3183  20.2752  23.6155

          k =-0.0833 0.4167-0.0833 (  6315 PWs)   bands (ev):

   -24.3607 -16.9918  -7.7721  -7.7295  -7.7138   1.1730   1.5645   1.5797
     9.4168  11.2535  13.4183  13.4608  14.4264  14.5287  20.8689  22.3241

          k =-0.1667 0.5000-0.1667 (  6310 PWs)   bands (ev):

   -24.3379 -17.0074  -7.8532  -7.7441  -7.7367   1.1034   1.4667   1.5137
    10.1292  11.1568  13.6186  13.7972  14.7564  14.9424  20.0561  21.6738

          k =-0.2500 0.5833-0.2500 (  6309 PWs)   bands (ev):

   -24.3170 -17.0227  -7.9232  -7.7648  -7.7464   1.0586   1.3690   1.4322
    10.7338  11.3765  13.6411  14.0214  15.3611  15.4763  18.6108  20.7461

          k = 0.6667-0.3333 0.6667 (  6312 PWs)   bands (ev):

   -24.3037 -17.0336  -7.9638  -7.7904  -7.7359   1.0166   1.3300   1.3571
    10.9594  11.8810  13.6092  14.1323  15.8073  16.0571  17.5529  20.3181

          k = 0.5833-0.2500 0.5833 (  6337 PWs)   bands (ev):

   -24.3018 -17.0370  -7.9645  -7.8065  -7.7153   0.9798   1.3074   1.3654
    11.0136  12.0481  13.5814  14.1155  15.6525  16.4001  17.3848  19.8000

          k = 0.5000-0.1667 0.5000 (  6328 PWs)   bands (ev):

   -24.3117 -17.0320  -7.9252  -7.8089  -7.6899   0.9800   1.2955   1.4416
    10.8727  11.7789  13.5382  13.9259  15.2335  16.1264  18.0783  19.9765

          k = 0.4167-0.0833 0.4167 (  6318 PWs)   bands (ev):

   -24.3307 -17.0200  -7.8556  -7.7973  -7.6667   1.0352   1.3244   1.5210
    10.3740  11.5647  13.5014  13.5635  14.8739  15.4685  19.3423  20.5139

          k = 0.3333 0.0000 0.3333 (  6337 PWs)   bands (ev):

   -24.3536 -17.0044  -7.7769  -7.7722  -7.6519   1.1431   1.3874   1.5724
     9.6797  11.6122  13.1644  13.3785  14.6220  14.8403  20.6635  20.9471

          k = 0.0000 0.5000 0.0000 (  6302 PWs)   bands (ev):

   -24.3473 -16.9925  -7.8150  -7.7624  -7.7624   1.1433   1.5939   1.5939
     9.7743  10.8784  13.8569  13.8569  14.3290  14.6065  21.5718  22.0799

          k =-0.0833 0.5833-0.0833 (  6313 PWs)   bands (ev):

   -24.3292 -16.9976  -7.9043  -7.7894  -7.7855   1.1470   1.5524   1.5678
    10.3486  10.6778  13.9568  14.2195  14.6163  14.8935  20.2987  21.3248

          k =-0.1667 0.6667-0.1667 (  6306 PWs)   bands (ev):

   -24.3112 -17.0057  -7.9845  -7.8196  -7.7929   1.1775   1.4610   1.5093
    10.6527  11.0767  13.6895  14.4175  15.3455  15.3764  18.7082  20.5799

          k = 0.7500-0.2500 0.7500 (  6325 PWs)   bands (ev):

   -24.2981 -17.0145  -8.0311  -7.8486  -7.7828   1.1903   1.3868   1.4351
    10.8185  11.7213  13.4191  14.5258  15.6968  16.2096  17.4558  20.2184

          k = 0.6667-0.1667 0.6667 (  6330 PWs)   bands (ev):

   -24.2936 -17.0219  -8.0321  -7.8685  -7.7575   1.1237   1.3649   1.4102
    11.0395  11.9874  13.3285  14.5487  15.5791  16.6045  17.2228  19.3845

          k = 0.5833-0.0833 0.5833 (  6333 PWs)   bands (ev):

   -24.2989 -17.0257  -7.9874  -7.8733  -7.7238   1.0477   1.3162   1.4699
    11.1387  11.8098  13.3566  14.3944  15.2362  16.5597  17.6430  19.1752

          k = 0.5000 0.0000 0.5000 (  6311 PWs)   bands (ev):

   -24.3125 -17.0251  -7.9124  -7.8579  -7.6905   1.0136   1.3013   1.5134
    10.9011  11.5831  13.4278  14.0000  15.0107  16.1911  18.2197  19.7946

          k = 0.0000 0.6667 0.0000 (  6334 PWs)   bands (ev):

   -24.3164 -16.9916  -7.9990  -7.8183  -7.8183   1.2077   1.5866   1.5866
    10.3514  10.7583  14.0982  14.7229  14.7229  14.9214  19.9383  20.7872

          k =-0.0833 0.7500-0.0833 (  6305 PWs)   bands (ev):

   -24.3030 -16.9908  -8.0849  -7.8439  -7.8341   1.2803   1.5499   1.5659
    10.2505  11.3135  13.7778  14.8912  15.3258  15.3484  18.7069  20.2219

          k = 0.8333-0.1667 0.8333 (  6337 PWs)   bands (ev):

   -24.2925 -16.9955  -8.1312  -7.8689  -7.8288   1.3429   1.4620   1.5123
    10.3819  11.9228  13.3224  14.9681  15.6233  16.2121  17.5220  19.8086

          k = 0.7500-0.0833 0.7500 (  6327 PWs)   bands (ev):

   -24.2878 -17.0046  -8.1252  -7.8878  -7.8039   1.2897   1.4405   1.4417
    10.6897  12.3260  12.9874  15.0399  15.4955  16.6885  17.2205  19.0836

          k = 0.6667-0.0000 0.6667 (  6295 PWs)   bands (ev):

   -24.2902 -17.0156  -8.0696  -7.8929  -7.7656   1.1596   1.3691   1.4690
    11.0338  12.0799  13.1592  14.9040  15.2335  16.4160  18.2443  18.2592

          k = 0.0000 0.8333 0.0000 (  6334 PWs)   bands (ev):

   -24.2947 -16.9820  -8.1714  -7.8592  -7.8592   1.3631   1.5872   1.5872
    10.0156  11.6633  13.7753  15.1728  15.4989  15.4989  18.3149  19.7909

          k = 0.9167-0.0833 0.9167 (  6334 PWs)   bands (ev):

   -24.2884 -16.9816  -8.2118  -7.8736  -7.8621   1.4207   1.5496   1.5683
    10.0295  12.0634  13.4701  15.2336  15.7198  16.0047  17.6243  19.4789

          k = 0.8333 0.0000 0.8333 (  6327 PWs)   bands (ev):

   -24.2859 -16.9898  -8.1943  -7.8852  -7.8420   1.4423   1.4474   1.5147
    10.2813  12.4722  12.9653  15.2819  15.5952  16.7179  17.0305  19.1918

          k = 0.0000-1.0000 0.0000 (  6346 PWs)   bands (ev):

   -24.2869 -16.9765  -8.2417  -7.8742  -7.8742   1.4420   1.5886   1.5886
     9.9010  12.0863  13.6234  15.2700  15.8486  15.8486  17.6518  19.3778

          k =-0.1667 0.3333 0.0000 (  6299 PWs)   bands (ev):

   -24.3724 -16.9879  -7.7377  -7.7241  -7.6657   1.2452   1.5164   1.5996
     9.1074  11.6002  13.0452  13.1826  14.4085  14.4468  20.4382  22.5283

          k =-0.2500 0.4167-0.0833 (  6312 PWs)   bands (ev):

   -24.3494 -17.0052  -7.8080  -7.7531  -7.6756   1.1242   1.4222   1.5519
     9.7963  11.4397  13.3722  13.4754  14.6387  14.8543  20.4605  21.2544

          k =-0.3333 0.5000-0.1667 (  6317 PWs)   bands (ev):

   -24.3262 -17.0227  -7.8829  -7.7717  -7.6907   1.0317   1.3419   1.4702
    10.5026  11.4958  13.5635  13.7630  15.0092  15.4640  19.0861  20.7270

          k = 0.5833-0.4167 0.7500 (  6314 PWs)   bands (ev):

   -24.3092 -17.0357  -7.9376  -7.7821  -7.7048   0.9744   1.3037   1.3842
    10.8913  11.8594  13.6175  13.9890  15.5018  16.0407  17.9064  20.1415

          k = 0.5000-0.3333 0.6667 (  6322 PWs)   bands (ev):

   -24.3029 -17.0404  -7.9575  -7.7853  -7.7107   0.9549   1.3120   1.3300
    10.9792  12.1067  13.6422  14.0630  15.7879  16.2665  17.4143  20.0311

          k =-0.1667 0.5000 0.0000 (  6317 PWs)   bands (ev):

   -24.3423 -17.0000  -7.8295  -7.7826  -7.7273   1.1254   1.5012   1.5796
     9.9637  11.0175  13.6964  13.8057  14.5434  14.8315  20.8133  21.0662

          k =-0.2500 0.5833-0.0833 (  6310 PWs)   bands (ev):

   -24.3220 -17.0103  -7.9061  -7.8240  -7.7360   1.1107   1.4134   1.5357
    10.6228  10.9940  13.6540  14.1552  14.8696  15.4196  19.2326  20.5985

          k = 0.6667-0.3333 0.8333 (  6323 PWs)   bands (ev):

   -24.3053 -17.0199  -7.9683  -7.8536  -7.7401   1.1080   1.3513   1.4614
    10.9456  11.4479  13.5002  14.3545  15.3838  16.0720  17.9086  20.0162

          k = 0.5833-0.2500 0.7500 (  6327 PWs)   bands (ev):

   -24.2968 -17.0263  -7.9949  -7.8718  -7.7351   1.0830   1.3565   1.3878
    11.0924  11.8495  13.4237  14.4286  15.6562  16.6130  17.1140  19.7067

          k = 0.5000-0.1667 0.6667 (  6325 PWs)   bands (ev):

   -24.2987 -17.0276  -7.9779  -7.8757  -7.7212   1.0504   1.3259   1.4273
    11.1353  11.7972  13.4180  14.3812  15.4538  16.5650  17.3803  19.4717

          k = 0.4167-0.0833 0.5833 (  6317 PWs)   bands (ev):

   -24.3106 -17.0237  -7.9212  -7.8643  -7.7025   1.0395   1.3152   1.4983
    10.9561  11.4675  13.4578  14.1541  15.0730  16.1569  18.1567  19.8524

          k = 0.3333 0.0000 0.5000 (  6304 PWs)   bands (ev):

   -24.3292 -17.0155  -7.8413  -7.8376  -7.6854   1.0627   1.3517   1.5463
    10.4150  11.3400  13.5299  13.7617  14.8064  15.4556  19.4216  20.4575

          k =-0.1667 0.6667-0.0000 (  6316 PWs)   bands (ev):

   -24.3135 -16.9986  -7.9897  -7.8410  -7.7881   1.1949   1.4982   1.5701
    10.5269  10.9077  13.7887  14.6878  14.8065  15.3672  19.1931  20.4373

          k = 0.7500-0.2500 0.9167 (  6313 PWs)   bands (ev):

   -24.2995 -17.0028  -8.0542  -7.8845  -7.7833   1.2487   1.4213   1.5307
    10.5971  11.5254  13.4316  14.8287  15.3238  16.0428  17.9554  19.7862

          k = 0.6667-0.1667 0.8333 (  6326 PWs)   bands (ev):

   -24.2910 -17.0089  -8.0775  -7.9148  -7.7698   1.2357   1.4056   1.4618
    10.8403  11.9642  13.1543  14.8898  15.5772  16.8150  17.0099  19.3269

          k = 0.5833-0.0833 0.7500 (  6337 PWs)   bands (ev):

   -24.2902 -17.0156  -8.0523  -7.9273  -7.7485   1.1569   1.3844   1.4564
    11.1338  11.8961  13.1820  14.8940  15.3681  16.5334  17.6527  18.7580

          k = 0.5000 0.0000 0.6667 (  6333 PWs)   bands (ev):

   -24.2974 -17.0211  -7.9867  -7.9176  -7.7239   1.0846   1.3306   1.4933
    11.2525  11.5931  13.2914  14.6390  15.1419  16.5653  17.7167  19.0289

          k = 0.8333-0.1667 1.0000 (  6313 PWs)   bands (ev):

   -24.2933 -16.9888  -8.1508  -7.8838  -7.8274   1.3568   1.5003   1.5693
    10.2103  11.8047  13.4640  15.1447  15.4862  15.9403  17.8939  19.5614

          k = 0.7500-0.0833 0.9167 (  6332 PWs)   bands (ev):

   -24.2871 -16.9932  -8.1672  -7.9170  -7.8074   1.3796   1.4412   1.5311
    10.4058  12.3042  12.9759  15.2153  15.6764  16.6256  17.1398  19.0948

          k = 0.6667 0.0000 0.8333 (  6330 PWs)   bands (ev):

   -24.2859 -17.0030  -8.1298  -7.9341  -7.7795   1.2759   1.4589   1.4613
    10.7709  12.3203  12.8721  15.2424  15.4429  16.6303  17.4682  18.6583

          k =-0.1667-1.0000-0.0000 (  6324 PWs)   bands (ev):

   -24.2861 -16.9832  -8.2177  -7.8994  -7.8412   1.4448   1.4958   1.5702
    10.1016  12.2831  13.2161  15.2734  15.8506  16.2306  17.3409  19.1649

          k = 0.6667-0.3333 1.0000 (  6335 PWs)   bands (ev):

   -24.3061 -17.0130  -7.9598  -7.9029  -7.7348   1.1382   1.3611   1.5317
    10.9963  11.1871  13.4340  14.6211  14.9883  16.1202  18.1635  19.7709

          k = 0.5833-0.2500 0.9167 (  6323 PWs)   bands (ev):

   -24.2945 -17.0150  -8.0038  -7.9543  -7.7351   1.1544   1.3640   1.4887
    11.1700  11.5708  13.2354  14.8529  15.3214  16.6114  17.4543  19.1474

          k = 0.5000-0.1667 0.8333 (  6324 PWs)   bands (ev):

   -24.2902 -17.0156  -8.0215  -7.9712  -7.7354   1.1543   1.4103   1.4331
    11.3065  11.6491  13.1990  14.8882  15.4891  16.8055  17.1906  18.9967

          k = 0.6667-0.1667 1.0000 (  6316 PWs)   bands (ev):

   -24.2902 -17.0024  -8.0935  -7.9505  -7.7647   1.2721   1.4076   1.5276
    10.7489  11.9066  13.0725  15.1766  15.4538  16.5887  17.3856  18.9904

          k = 0.5833-0.0833 0.9167 (  6323 PWs)   bands (ev):

   -24.2857 -17.0047  -8.0893  -7.9969  -7.7486   1.2311   1.4513   1.4866
    11.0711  11.8741  12.9758  15.1650  15.6383  16.7372  17.4350  18.4618

          k = 0.5000 0.0000 0.8333 (  6328 PWs)   bands (ev):

   -24.2873 -17.0093  -8.0407  -8.0139  -7.7380   1.1895   1.4214   1.4858
    11.4243  11.5098  13.0794  15.1750  15.4235  16.5793  17.8790  18.2553

          k =-0.3333-1.0000 0.0000 (  6310 PWs)   bands (ev):

   -24.2846 -16.9965  -8.1517  -7.9679  -7.7743   1.3136   1.4568   1.5274
    10.6609  12.3803  12.7160  15.2180  15.8547  16.9038  17.0013  18.6030

          k =-0.5000-1.0000 0.0000 (  6352 PWs)   bands (ev):

   -24.2838 -17.0031  -8.0604  -8.0604  -7.7403   1.2241   1.4845   1.4845
    11.4688  11.4688  12.9655  15.1347  15.8568  16.7494  17.8385  17.8385

     the Fermi energy is     7.2363 ev
     (compare with:     7.2362 eV, computed in scf)

     Writing all to output data dir out/mp-463.save/
 
     init_run     :      0.08s CPU      0.09s WALL (       1 calls)
     electrons    :      9.46s CPU     10.01s WALL (       1 calls)

     Called by init_run:
     wfcinit      :      0.00s CPU      0.00s WALL (       1 calls)
     potinit      :      0.01s CPU      0.02s WALL (       1 calls)
     hinit0       :      0.01s CPU      0.02s WALL (       1 calls)

     Called by electrons:
     c_bands      :      9.46s CPU     10.01s WALL (       1 calls)
     v_of_rho     :      0.01s CPU      0.01s WALL (       1 calls)

     Called by c_bands:
     init_us_2    :      0.02s CPU      0.02s WALL (      72 calls)
     init_us_2:cp :      0.02s CPU      0.02s WALL (      72 calls)
     cegterg      :      8.74s CPU      8.94s WALL (     103 calls)

     Called by *egterg:
     cdiaghg      :      0.56s CPU      0.58s WALL (    1539 calls)
     h_psi        :      7.74s CPU      7.93s WALL (    1642 calls)
     g_psi        :      0.07s CPU      0.07s WALL (    1467 calls)

     Called by h_psi:
     h_psi:calbec :      0.21s CPU      0.21s WALL (    1642 calls)
     vloc_psi     :      7.35s CPU      7.53s WALL (    1642 calls)
     add_vuspsi   :      0.14s CPU      0.14s WALL (    1642 calls)

     General routines
     calbec       :      0.20s CPU      0.21s WALL (    1642 calls)
     fft          :      0.00s CPU      0.01s WALL (      10 calls)
     fftw         :      6.54s CPU      6.69s WALL (   34526 calls)
 
     Parallel routines
 
     PWSCF        :      9.86s CPU     11.13s WALL

 
   This run was terminated on:  14:29:14   3Jan2024            

=------------------------------------------------------------------------------=
   JOB DONE.
=------------------------------------------------------------------------------=
