
     Program PWSCF v.7.1 starts on  3Jan2024 at 14:33:41 

     This program is part of the open-source Quantum ESPRESSO suite
     for quantum simulation of materials; please cite
         "P. Giannozzi et al., J. Phys.:Condens. Matter 21 395502 (2009);
         "P. Giannozzi et al., J. Phys.:Condens. Matter 29 465901 (2017);
         "P. Giannozzi et al., J. Chem. Phys. 152 154105 (2020);
          URL http://www.quantum-espresso.org", 
     in publications or presentations arising from this work. More details at
     http://www.quantum-espresso.org/quote

     Parallel version (MPI), running on     8 processors

     MPI processes distributed on     1 nodes
     120370 MiB available memory on the printing compute node when the environment starts
 
     Reading input from pw_mp-1415_emass_k3000_E130.in
Warning: card &IONS ignored
Warning: card / ignored
Warning: card &CELL ignored
Warning: card / ignored

     Current dimensions of program PWSCF are:
     Max number of different atomic species (ntypx) = 10
     Max number of k-points (npk) =  40000
     Max angular momentum in pseudopotentials (lmaxx) =  4

     Atomic positions and unit cell read from directory:
     out/mp-1415.save/
     Atomic positions from file used, from input discarded
 
 
     R & G space division:  proc/nbgrp/npool/nimage =       8
     Subspace diagonalization in iterative solution of the eigenvalue problem:
     a serial algorithm will be used

 
     Parallelization info
     --------------------
     sticks:   dense  smooth     PW     G-vecs:    dense   smooth      PW
     Min         280     280     78                 8862     8862    1272
     Max         281     281     79                 8866     8866    1273
     Sum        2245    2245    625                70913    70913   10177
 
     Using Slab Decomposition
 


     bravais-lattice index     =            2
     lattice parameter (alat)  =      11.2259  a.u.
     unit-cell volume          =     353.6717 (a.u.)^3
     number of atoms/cell      =            2
     number of atomic types    =            2
     number of electrons       =        16.00
     number of Kohn-Sham states=           16
     kinetic-energy cutoff     =     130.0000  Ry
     charge density cutoff     =     520.0000  Ry
     Exchange-correlation= PBE
                           (   1   4   3   4   0   0   0)

     celldm(1)=  11.225872  celldm(2)=   0.000000  celldm(3)=   0.000000
     celldm(4)=   0.000000  celldm(5)=   0.000000  celldm(6)=   0.000000

     crystal axes: (cart. coord. in units of alat)
               a(1) = (  -0.500000   0.000000   0.500000 )  
               a(2) = (   0.000000   0.500000   0.500000 )  
               a(3) = (  -0.500000   0.500000   0.000000 )  

     reciprocal axes: (cart. coord. in units 2 pi/alat)
               b(1) = ( -1.000000 -1.000000  1.000000 )  
               b(2) = (  1.000000  1.000000  1.000000 )  
               b(3) = ( -1.000000  1.000000 -1.000000 )  


     PseudoPot. # 1 for Ca read from file:
     /usr/scratch4/magr4985/MG/devEb/pseudo/SG15/Ca.upf
     MD5 check sum: d3df06507a1658a66563533e58c348d1
     Pseudo is Norm-conserving, Zval = 10.0
     Generated using ONCVPSP code by D. R. Hamann
     Using radial grid of  602 points,  6 beta functions with: 
                l(1) =   0
                l(2) =   0
                l(3) =   1
                l(4) =   1
                l(5) =   2
                l(6) =   2

     PseudoPot. # 2 for Se read from file:
     /usr/scratch4/magr4985/MG/devEb/pseudo/SG15/Se.upf
     MD5 check sum: c44afd8c4e480dd2a5f8f6cb06637de2
     Pseudo is Norm-conserving, Zval =  6.0
     Generated using ONCVPSP code by D. R. Hamann
     Using radial grid of  602 points,  6 beta functions with: 
                l(1) =   0
                l(2) =   0
                l(3) =   1
                l(4) =   1
                l(5) =   2
                l(6) =   2

     atomic species   valence    mass     pseudopotential
        Ca            10.00    40.07800     Ca( 1.00)
        Se             6.00    78.96000     Se( 1.00)

     48 Sym. Ops., with inversion, found



   Cartesian axes

     site n.     atom                  positions (alat units)
         1           Ca  tau(   1) = (   0.0000000   0.0000000   0.0000000  )
         2           Se  tau(   2) = (  -0.5000000   0.5000000   0.5000000  )

     number of k points=     7  Gaussian smearing, width (Ry)=  0.0005
                       cart. coord. in units 2pi/alat
        k(    1) = (   0.0000000  -1.0000000   0.0000000), wk =   0.2857143
        k(    2) = (   0.0100000  -1.0000000   0.0000000), wk =   0.2857143
        k(    3) = (  -0.0100000  -1.0000000   0.0000000), wk =   0.2857143
        k(    4) = (   0.0000000  -0.9900000   0.0000000), wk =   0.2857143
        k(    5) = (   0.0000000  -1.0100000   0.0000000), wk =   0.2857143
        k(    6) = (   0.0000000  -1.0000000   0.0100000), wk =   0.2857143
        k(    7) = (   0.0000000  -1.0000000  -0.0100000), wk =   0.2857143

     Dense  grid:    70913 G-vectors     FFT dimensions: (  60,  60,  60)

     Estimated max dynamical RAM per process >      10.39 MB

     Estimated total dynamical RAM >      83.10 MB

     The potential is recalculated from file :
     out/mp-1415.save/charge-density

     Starting wfcs are random

     Band Structure Calculation
     ParO style diagonalization

     ethr =  5.00E-06,  avg # of iterations = 19.3

     total cpu time spent up to now is        1.9 secs

     End of band structure calculation

          k = 0.0000-1.0000 0.0000 (  8904 PWs)   bands (ev):

   -33.9371 -15.0072 -14.9612 -14.9612  -5.3008   3.4059   4.9754   4.9754
     7.9435  10.8866  10.8929  11.8408  11.8667  11.8667  15.9367  16.5743

          k = 0.0100-1.0000 0.0000 (  8904 PWs)   bands (ev):

   -33.9371 -15.0072 -14.9612 -14.9612  -5.3007   3.4061   4.9746   4.9746
     7.9450  10.8879  10.8938  11.8406  11.8662  11.8667  15.9356  16.5730

          k =-0.0100-1.0000 0.0000 (  8904 PWs)   bands (ev):

   -33.9371 -15.0072 -14.9612 -14.9612  -5.3007   3.4061   4.9746   4.9746
     7.9450  10.8879  10.8938  11.8406  11.8662  11.8667  15.9356  16.5731

          k = 0.0000-0.9900 0.0000 (  8904 PWs)   bands (ev):

   -33.9371 -15.0072 -14.9612 -14.9612  -5.3008   3.4058   4.9755   4.9755
     7.9438  10.8871  10.8927  11.8412  11.8666  11.8666  15.9364  16.5742

          k = 0.0000-1.0100 0.0000 (  8904 PWs)   bands (ev):

   -33.9371 -15.0072 -14.9612 -14.9612  -5.3008   3.4058   4.9755   4.9755
     7.9438  10.8871  10.8927  11.8412  11.8666  11.8666  15.9364  16.5742

          k = 0.0000-1.0000 0.0100 (  8904 PWs)   bands (ev):

   -33.9371 -15.0072 -14.9612 -14.9612  -5.3007   3.4061   4.9746   4.9746
     7.9450  10.8879  10.8938  11.8406  11.8662  11.8667  15.9356  16.5731

          k = 0.0000-1.0000-0.0100 (  8904 PWs)   bands (ev):

   -33.9371 -15.0072 -14.9612 -14.9612  -5.3007   3.4061   4.9746   4.9746
     7.9450  10.8879  10.8938  11.8406  11.8662  11.8667  15.9356  16.5731

     the Fermi energy is     7.1425 ev
     (compare with:     8.3886 eV, computed in scf)

     Writing all to output data dir out/mp-1415.save/
 
     init_run     :      0.12s CPU      0.14s WALL (       1 calls)
     electrons    :      1.58s CPU      1.62s WALL (       1 calls)

     Called by init_run:
     wfcinit      :      0.00s CPU      0.00s WALL (       1 calls)
     potinit      :      0.03s CPU      0.03s WALL (       1 calls)
     hinit0       :      0.02s CPU      0.02s WALL (       1 calls)

     Called by electrons:
     c_bands      :      1.58s CPU      1.62s WALL (       1 calls)
     v_of_rho     :      0.01s CPU      0.01s WALL (       1 calls)

     Called by c_bands:
     init_us_2    :      0.00s CPU      0.00s WALL (       7 calls)
     init_us_2:cp :      0.00s CPU      0.00s WALL (       7 calls)
     paro_k       :      1.48s CPU      1.52s WALL (       7 calls)

     Called by paro_*:
     h_psi        :      1.27s CPU      1.30s WALL (     368 calls)
     g_psi        :      0.02s CPU      0.02s WALL (    2532 calls)

     Called by h_psi:
     h_psi:calbec :      0.05s CPU      0.06s WALL (     368 calls)
     vloc_psi     :      1.17s CPU      1.20s WALL (     368 calls)
     add_vuspsi   :      0.04s CPU      0.04s WALL (     368 calls)

     General routines
     calbec       :      0.05s CPU      0.06s WALL (     368 calls)
     fft          :      0.00s CPU      0.01s WALL (      10 calls)
     fftw         :      1.02s CPU      1.04s WALL (    4362 calls)
 
     Parallel routines
 
     PWSCF        :      1.82s CPU      1.90s WALL

 
   This run was terminated on:  14:33:43   3Jan2024            

=------------------------------------------------------------------------------=
   JOB DONE.
=------------------------------------------------------------------------------=
