 vasp.5.4.4.18Apr17-6-g9f103f2a35 (build Aug 24 2017 11:22:49) complex          
  
 executed on             LinuxIFC date 2023.12.25  13:07:35
 running on    8 total cores
 distrk:  each k-point on    8 cores,    1 groups
 distr:  one band on NCORES_PER_BAND=   1 cores,    8 groups


--------------------------------------------------------------------------------------------------------


 INCAR:
 POTCAR:    PAW_PBE Na_pv 19Sep2006               
 POTCAR:    PAW_PBE Cl 06Sep2000                  

 ----------------------------------------------------------------------------- 
|                                                                             |
|           W    W    AA    RRRRR   N    N  II  N    N   GGGG   !!!           |
|           W    W   A  A   R    R  NN   N  II  NN   N  G    G  !!!           |
|           W    W  A    A  R    R  N N  N  II  N N  N  G       !!!           |
|           W WW W  AAAAAA  RRRRR   N  N N  II  N  N N  G  GGG   !            |
|           WW  WW  A    A  R   R   N   NN  II  N   NN  G    G                |
|           W    W  A    A  R    R  N    N  II  N    N   GGGG   !!!           |
|                                                                             |
|      For optimal performance we recommend to set                            |
|        NCORE= 4 - approx SQRT( number of cores)                             |
|      NCORE specifies how many cores store one orbital (NPAR=cpu/NCORE).     |
|      This setting can  greatly improve the performance of VASP for DFT.     |
|      The default,   NCORE=1            might be grossly inefficient         |
|      on modern multi-core architectures or massively parallel machines.     |
|      Do your own testing !!!!                                               |
|      Unfortunately you need to use the default for GW and RPA calculations. |
|      (for HF NCORE is supported but not extensively tested yet)             |
|                                                                             |
 ----------------------------------------------------------------------------- 

 POTCAR:    PAW_PBE Na_pv 19Sep2006               
   VRHFIN =Na: p6s1                                                             
   LEXCH  = PE                                                                  
   EATOM  =   766.0439 eV,   56.3026 Ry                                         
                                                                                
   TITEL  = PAW_PBE Na_pv 19Sep2006                                             
   LULTRA =        F    use ultrasoft PP ?                                      
   IUNSCR =        1    unscreen: 0-lin 1-nonlin 2-no                           
   RPACOR =    1.800    partial core radius                                     
   POMASS =   22.990; ZVAL   =    7.000    mass and valenz                      
   RCORE  =    2.200    outmost cutoff radius                                   
   RWIGS  =    2.200; RWIGS  =    1.164    wigner-seitz radius (au A)           
   ENMAX  =  259.561; ENMIN  =  194.671 eV                                      
   ICORE  =        2    local potential                                         
   LCOR   =        T    correct aug charges                                     
   LPAW   =        T    paw PP                                                  
   EAUG   =  368.056                                                            
   DEXC   =    0.000                                                            
   RMAX   =    2.245    core radius for proj-oper                               
   RAUG   =    1.300    factor for augmentation sphere                          
   RDEP   =    2.259    radius for radial grids                                 
   RDEPT  =    1.738    core radius for aug-charge                              
                                                                                
   Atomic configuration                                                         
    5 entries                                                                   
     n  l   j            E        occ.                                          
     1  0  0.50     -1033.6933   2.0000                                         
     2  0  0.50       -56.7526   2.0000                                         
     2  1  1.50       -28.6721   6.0000                                         
     3  0  0.50        -2.7440   1.0000                                         
     3  2  1.50        -1.3606   0.0000                                         
   Description                                                                  
     l       E           TYP  RCUT    TYP  RCUT                                 
     1    -28.6720912     23  2.000                                             
     1      6.8029130     23  2.000                                             
     0     -2.7439560     23  2.200                                             
     0     34.0145650     23  2.200                                             
     2     -1.3605826     23  2.200                                             
  local pseudopotential read in
  partial core-charges read in
  partial kinetic energy density read in
  atomic valenz-charges read in
  non local Contribution for L=           1  read in
    real space projection operators read in
  non local Contribution for L=           1  read in
    real space projection operators read in
  non local Contribution for L=           0  read in
    real space projection operators read in
  non local Contribution for L=           0  read in
    real space projection operators read in
    PAW grid and wavefunctions read in
 
   number of l-projection  operators is LMAX  =           4
   number of lm-projection operators is LMMAX =           8
 
 POTCAR:    PAW_PBE Cl 06Sep2000                  
   VRHFIN =Cl: s2p5                                                             
   LEXCH  = PE                                                                  
   EATOM  =   409.7259 eV,   30.1140 Ry                                         
                                                                                
   TITEL  = PAW_PBE Cl 06Sep2000                                                
   LULTRA =        F    use ultrasoft PP ?                                      
   IUNSCR =        1    unscreen: 0-lin 1-nonlin 2-no                           
   RPACOR =    1.500    partial core radius                                     
   POMASS =   35.453; ZVAL   =    7.000    mass and valenz                      
   RCORE  =    1.900    outmost cutoff radius                                   
   RWIGS  =    2.100; RWIGS  =    1.111    wigner-seitz radius (au A)           
   ENMAX  =  262.472; ENMIN  =  196.854 eV                                      
   ICORE  =        2    local potential                                         
   LCOR   =        T    correct aug charges                                     
   LPAW   =        T    paw PP                                                  
   EAUG   =  356.192                                                            
   DEXC   =    0.000                                                            
   RMAX   =    1.945    core radius for proj-oper                               
   RAUG   =    1.300    factor for augmentation sphere                          
   RDEP   =    2.020    radius for radial grids                                 
   RDEPT  =    1.678    core radius for aug-charge                              
                                                                                
   Atomic configuration                                                         
    6 entries                                                                   
     n  l   j            E        occ.                                          
     1  0  0.50     -2751.1850   2.0000                                         
     2  0  0.50      -252.6861   2.0000                                         
     2  1  1.50      -191.6157   6.0000                                         
     3  0  0.50       -20.6916   2.0000                                         
     3  1  0.50        -8.5949   5.0000                                         
     3  2  1.50        -8.1635   0.0000                                         
   Description                                                                  
     l       E           TYP  RCUT    TYP  RCUT                                 
     0    -20.6915656     23  1.900                                             
     0    -22.0521482     23  1.900                                             
     1     -8.5948577     23  1.900                                             
     1     -5.3847331     23  1.900                                             
     2     -8.1634956     23  1.900                                             
  local pseudopotential read in
  partial core-charges read in
  partial kinetic energy density read in
  atomic valenz-charges read in
  non local Contribution for L=           0  read in
    real space projection operators read in
  non local Contribution for L=           0  read in
    real space projection operators read in
  non local Contribution for L=           1  read in
    real space projection operators read in
  non local Contribution for L=           1  read in
    real space projection operators read in
    PAW grid and wavefunctions read in
 
   number of l-projection  operators is LMAX  =           4
   number of lm-projection operators is LMMAX =           8
 
  PAW_PBE Na_pv 19Sep2006               :
 energy of atom  1       EATOM= -766.0439
 kinetic energy error for atom=    0.0019 (will be added to EATOM!!)
  PAW_PBE Cl 06Sep2000                  :
 energy of atom  2       EATOM= -409.7259
 kinetic energy error for atom=    0.0023 (will be added to EATOM!!)
 
 
 POSCAR: Na1 Cl1                                 
  positions in direct lattice
  No initial velocities read in
 exchange correlation table for  LEXCH =        8
   RHO(1)=    0.500       N(1)  =     2000
   RHO(2)=  100.500       N(2)  =     4000
 


--------------------------------------------------------------------------------------------------------


 ion  position               nearest neighbor table
   1  0.000  0.000  0.000-
   2  0.500  0.500  0.500-
 
  LATTYP: Found a face centered cubic cell.
 ALAT       =     5.5881260062
  
  Lattice vectors:
  
 A1 = (  -2.7940630031,   0.0000000000,   2.7940630031)
 A2 = (   0.0000000000,   2.7940630031,   2.7940630031)
 A3 = (  -2.7940630031,   2.7940630031,   0.0000000000)


Analysis of symmetry for initial positions (statically):
=====================================================================
 Subroutine PRICEL returns:
 Original cell was already a primitive cell.
 

 Routine SETGRP: Setting up the symmetry group for a 
 face centered cubic supercell.


 Subroutine GETGRP returns: Found  8 space group operations
 (whereof  8 operations were pure point group operations)
 out of a pool of 48 trial point group operations.


The static configuration has the point symmetry C_4v.


Analysis of symmetry for dynamics (positions and initial velocities):
=====================================================================
 Subroutine PRICEL returns:
 Original cell was already a primitive cell.
 

 Routine SETGRP: Setting up the symmetry group for a 
 face centered cubic supercell.


 Subroutine GETGRP returns: Found  8 space group operations
 (whereof  8 operations were pure point group operations)
 out of a pool of 48 trial point group operations.


The dynamic configuration has the point symmetry C_4v.


 Subroutine INISYM returns: Found  8 space group operations
 (whereof  8 operations are pure point group operations),
 and found     1 'primitive' translations

 
 
 KPOINTS: pymatgen with grid density = 3000 / numb

Automatic generation of k-mesh.
Space group operators:
 irot       det(A)        alpha          n_x          n_y          n_z        tau_x        tau_y        tau_z
    1     1.000000     0.000001     1.000000     0.000000     0.000000     0.000000     0.000000     0.000000
    2     1.000000    90.000000    -1.000000     0.000000    -0.000000     0.000000     0.000000     0.000000
    3    -1.000000   180.000000    -0.000000     0.000000     1.000000     0.000000     0.000000     0.000000
    4    -1.000000   180.000000    -0.000000     0.707107     0.707107     0.000000     0.000000     0.000000
    5    -1.000000   180.000000    -0.000000     1.000000     0.000000     0.000000     0.000000     0.000000
    6     1.000000    90.000000     1.000000     0.000000     0.000000     0.000000     0.000000     0.000000
    7     1.000000   180.000000     1.000000     0.000000     0.000000     0.000000     0.000000     0.000000
    8    -1.000000   180.000000    -0.000000    -0.707107     0.707107     0.000000     0.000000     0.000000
 
 Subroutine IBZKPT returns following result:
 ===========================================
 
 Found    163 irreducible k-points:
 
 Following reciprocal coordinates:
            Coordinates               Weight
  0.000000  0.000000  0.000000      1.000000
  0.083333 -0.000000 -0.000000      8.000000
  0.166667  0.000000 -0.000000      8.000000
  0.250000 -0.000000 -0.000000      8.000000
  0.333333 -0.000000 -0.000000      8.000000
  0.416667 -0.000000 -0.000000      8.000000
  0.500000 -0.000000 -0.000000      4.000000
  0.083333  0.083333 -0.000000      4.000000
  0.166667  0.083333 -0.000000     16.000000
  0.250000  0.083333 -0.000000     16.000000
  0.333333  0.083333 -0.000000     16.000000
  0.416667  0.083333 -0.000000     16.000000
  0.500000  0.083333 -0.000000     16.000000
 -0.416667  0.083333  0.000000     16.000000
 -0.333333  0.083333  0.000000     16.000000
 -0.250000  0.083333  0.000000     16.000000
 -0.166667  0.083333  0.000000     16.000000
 -0.083333  0.083333 -0.000000      8.000000
  0.166667  0.166667 -0.000000      4.000000
  0.250000  0.166667 -0.000000     16.000000
  0.333333  0.166667 -0.000000     16.000000
  0.416667  0.166667 -0.000000     16.000000
  0.500000  0.166667 -0.000000     16.000000
 -0.416667  0.166667 -0.000000     16.000000
 -0.333333  0.166667 -0.000000     16.000000
 -0.250000  0.166667  0.000000     16.000000
 -0.166667  0.166667 -0.000000      8.000000
  0.250000  0.250000 -0.000000      4.000000
  0.333333  0.250000 -0.000000     16.000000
  0.416667  0.250000 -0.000000     16.000000
  0.500000  0.250000 -0.000000     16.000000
 -0.416667  0.250000 -0.000000     16.000000
 -0.333333  0.250000 -0.000000     16.000000
 -0.250000  0.250000  0.000000      8.000000
  0.333333  0.333333 -0.000000      4.000000
  0.416667  0.333333 -0.000000     16.000000
  0.500000  0.333333 -0.000000     16.000000
 -0.416667  0.333333  0.000000     16.000000
 -0.333333  0.333333  0.000000      8.000000
  0.416667  0.416667 -0.000000      4.000000
  0.500000  0.416667 -0.000000     16.000000
 -0.416667  0.416667  0.000000      8.000000
  0.500000  0.500000 -0.000000      2.000000
  0.083333 -0.000000  0.083333      2.000000
  0.166667  0.000000  0.083333      8.000000
  0.250000  0.000000  0.083333      8.000000
  0.333333  0.000000  0.083333      8.000000
  0.416667  0.000000  0.083333      8.000000
  0.500000 -0.000000  0.083333      8.000000
 -0.416667  0.000000  0.083333      8.000000
 -0.333333 -0.000000  0.083333      8.000000
 -0.250000  0.000000  0.083333      8.000000
 -0.166667  0.000000  0.083333      8.000000
 -0.083333  0.000000  0.083333      4.000000
  0.250000  0.166667  0.083333      8.000000
  0.333333  0.166667  0.083333     16.000000
  0.416667  0.166667  0.083333     16.000000
  0.500000  0.166667  0.083333     16.000000
 -0.416667  0.166667  0.083333      8.000000
  0.166667  0.250000  0.083333      8.000000
  0.333333  0.250000  0.083333      8.000000
  0.416667  0.250000  0.083333     16.000000
  0.500000  0.250000  0.083333     16.000000
 -0.416667  0.250000  0.083333     16.000000
 -0.333333  0.250000  0.083333     16.000000
 -0.250000  0.250000  0.083333     16.000000
 -0.166667  0.250000  0.083333      8.000000
  0.166667  0.333333  0.083333     16.000000
  0.250000  0.333333  0.083333      8.000000
  0.416667  0.333333  0.083333      8.000000
  0.500000  0.333333  0.083333     16.000000
 -0.416667  0.333333  0.083333     16.000000
 -0.333333  0.333333  0.083333     16.000000
 -0.250000  0.333333  0.083333      8.000000
  0.166667  0.416667  0.083333     16.000000
  0.250000  0.416667  0.083333     16.000000
  0.333333  0.416667  0.083333      8.000000
  0.500000  0.416667  0.083333      8.000000
 -0.416667  0.416667  0.083333     16.000000
 -0.333333  0.416667  0.083333      8.000000
  0.166667  0.500000  0.083333     16.000000
  0.250000  0.500000  0.083333     16.000000
  0.333333  0.500000  0.083333     16.000000
  0.416667  0.500000  0.083333      8.000000
 -0.416667  0.500000  0.083333      4.000000
  0.166667 -0.416667  0.083333     16.000000
  0.250000 -0.416667  0.083333     16.000000
  0.333333 -0.416667  0.083333     16.000000
  0.416667 -0.416667  0.083333     16.000000
  0.500000 -0.416667  0.083333      4.000000
  0.166667 -0.333333  0.083333     16.000000
  0.250000 -0.333333  0.083333     16.000000
  0.333333 -0.333333  0.083333     16.000000
  0.416667 -0.333333  0.083333      8.000000
  0.166667 -0.250000  0.083333     16.000000
  0.250000 -0.250000  0.083333     16.000000
  0.333333 -0.250000  0.083333      8.000000
  0.166667 -0.166667  0.083333     16.000000
  0.250000 -0.166667  0.083333      8.000000
  0.166667 -0.083333  0.083333      8.000000
  0.166667 -0.000000  0.166667      2.000000
  0.250000 -0.000000  0.166667      8.000000
  0.333333 -0.000000  0.166667      8.000000
  0.416667  0.000000  0.166667      8.000000
  0.500000 -0.000000  0.166667      8.000000
 -0.416667 -0.000000  0.166667      8.000000
 -0.333333  0.000000  0.166667      8.000000
 -0.250000  0.000000  0.166667      8.000000
 -0.166667 -0.000000  0.166667      4.000000
  0.500000  0.333333  0.166667      8.000000
 -0.416667  0.333333  0.166667     16.000000
 -0.333333  0.333333  0.166667      8.000000
  0.250000  0.416667  0.166667      8.000000
 -0.416667  0.416667  0.166667      8.000000
 -0.333333  0.416667  0.166667     16.000000
 -0.250000  0.416667  0.166667      8.000000
  0.250000  0.500000  0.166667     16.000000
  0.333333  0.500000  0.166667      8.000000
 -0.333333  0.500000  0.166667      4.000000
  0.250000 -0.416667  0.166667     16.000000
  0.333333 -0.416667  0.166667     16.000000
  0.416667 -0.416667  0.166667      8.000000
  0.250000 -0.333333  0.166667     16.000000
  0.333333 -0.333333  0.166667     16.000000
  0.416667 -0.333333  0.166667     16.000000
  0.500000 -0.333333  0.166667      4.000000
  0.250000 -0.250000  0.166667     16.000000
  0.333333 -0.250000  0.166667     16.000000
  0.416667 -0.250000  0.166667      8.000000
  0.250000 -0.166667  0.166667     16.000000
  0.333333 -0.166667  0.166667      8.000000
  0.250000 -0.083333  0.166667      8.000000
  0.250000 -0.000000  0.250000      2.000000
  0.333333 -0.000000  0.250000      8.000000
  0.416667 -0.000000  0.250000      8.000000
  0.500000 -0.000000  0.250000      8.000000
 -0.416667 -0.000000  0.250000      8.000000
 -0.333333  0.000000  0.250000      8.000000
 -0.250000  0.000000  0.250000      4.000000
 -0.250000  0.500000  0.250000      2.000000
  0.333333 -0.416667  0.250000      8.000000
  0.333333 -0.333333  0.250000     16.000000
  0.416667 -0.333333  0.250000      8.000000
  0.333333 -0.250000  0.250000     16.000000
  0.416667 -0.250000  0.250000     16.000000
  0.500000 -0.250000  0.250000      4.000000
  0.333333 -0.166667  0.250000     16.000000
  0.416667 -0.166667  0.250000      8.000000
  0.333333 -0.083333  0.250000      8.000000
  0.333333 -0.000000  0.333333      2.000000
  0.416667 -0.000000  0.333333      8.000000
  0.500000  0.000000  0.333333      8.000000
 -0.416667  0.000000  0.333333      8.000000
 -0.333333  0.000000  0.333333      4.000000
  0.416667 -0.250000  0.333333      8.000000
  0.416667 -0.166667  0.333333     16.000000
  0.500000 -0.166667  0.333333      4.000000
  0.416667 -0.083333  0.333333      8.000000
  0.416667 -0.000000  0.416667      2.000000
  0.500000 -0.000000  0.416667      8.000000
 -0.416667  0.000000  0.416667      4.000000
  0.500000 -0.083333  0.416667      4.000000
  0.500000 -0.000000  0.500000      1.000000
 
 Following cartesian coordinates:
            Coordinates               Weight
  0.000000  0.000000  0.000000      1.000000
 -0.014913 -0.014913  0.014913      8.000000
 -0.029825 -0.029825  0.029825      8.000000
 -0.044738 -0.044738  0.044738      8.000000
 -0.059650 -0.059650  0.059650      8.000000
 -0.074563 -0.074563  0.074563      8.000000
 -0.089475 -0.089475  0.089475      4.000000
  0.000000  0.000000  0.029825      4.000000
 -0.014913 -0.014913  0.044738     16.000000
 -0.029825 -0.029825  0.059650     16.000000
 -0.044738 -0.044738  0.074563     16.000000
 -0.059650 -0.059650  0.089475     16.000000
 -0.074563 -0.074563  0.104388     16.000000
  0.089475  0.089475 -0.059650     16.000000
  0.074563  0.074563 -0.044738     16.000000
  0.059650  0.059650 -0.029825     16.000000
  0.044738  0.044738 -0.014913     16.000000
  0.029825  0.029825 -0.000000      8.000000
  0.000000  0.000000  0.059650      4.000000
 -0.014913 -0.014913  0.074563     16.000000
 -0.029825 -0.029825  0.089475     16.000000
 -0.044738 -0.044738  0.104388     16.000000
 -0.059650 -0.059650  0.119301     16.000000
  0.104388  0.104388 -0.044738     16.000000
  0.089475  0.089475 -0.029825     16.000000
  0.074563  0.074563 -0.014913     16.000000
  0.059650  0.059650  0.000000      8.000000
  0.000000  0.000000  0.089475      4.000000
 -0.014913 -0.014913  0.104388     16.000000
 -0.029825 -0.029825  0.119301     16.000000
 -0.044738 -0.044738  0.134213     16.000000
  0.119301  0.119301 -0.029825     16.000000
  0.104388  0.104388 -0.014913     16.000000
  0.089475  0.089475  0.000000      8.000000
  0.000000  0.000000  0.119301      4.000000
 -0.014913 -0.014913  0.134213     16.000000
 -0.029825 -0.029825  0.149126     16.000000
  0.134213  0.134213 -0.014913     16.000000
  0.119301  0.119301  0.000000      8.000000
 -0.000000 -0.000000  0.149126      4.000000
 -0.014913 -0.014913  0.164038     16.000000
  0.149126  0.149126 -0.000000      8.000000
  0.000000  0.000000  0.178951      2.000000
 -0.029825 -0.000000  0.000000      2.000000
 -0.044738 -0.014913  0.014913      8.000000
 -0.059650 -0.029825  0.029825      8.000000
 -0.074563 -0.044738  0.044738      8.000000
 -0.089475 -0.059650  0.059650      8.000000
 -0.104388 -0.074563  0.074563      8.000000
  0.059650  0.089475 -0.089475      8.000000
  0.044738  0.074563 -0.074563      8.000000
  0.029825  0.059650 -0.059650      8.000000
  0.014913  0.044738 -0.044738      8.000000
  0.000000  0.029825 -0.029825      4.000000
 -0.029825 -0.000000  0.059650      8.000000
 -0.044738 -0.014913  0.074563     16.000000
 -0.059650 -0.029825  0.089475     16.000000
 -0.074563 -0.044738  0.104388     16.000000
  0.089475  0.119301 -0.059650      8.000000
  0.000000  0.029825  0.059650      8.000000
 -0.029825  0.000000  0.089475      8.000000
 -0.044738 -0.014913  0.104388     16.000000
 -0.059650 -0.029825  0.119301     16.000000
  0.104388  0.134213 -0.044738     16.000000
  0.089475  0.119301 -0.029825     16.000000
  0.074563  0.104388 -0.014913     16.000000
  0.059650  0.089475  0.000000      8.000000
  0.014913  0.044738  0.074563     16.000000
  0.000000  0.029825  0.089475      8.000000
 -0.029825 -0.000000  0.119301      8.000000
 -0.044738 -0.014913  0.134213     16.000000
  0.119301  0.149126 -0.029825     16.000000
  0.104388  0.134213 -0.014913     16.000000
  0.089475  0.119301  0.000000      8.000000
  0.029825  0.059650  0.089475     16.000000
  0.014913  0.044738  0.104388     16.000000
  0.000000  0.029825  0.119301      8.000000
 -0.029825  0.000000  0.149126      8.000000
  0.134213  0.164038 -0.014913     16.000000
  0.119301  0.149126  0.000000      8.000000
  0.044738  0.074563  0.104388     16.000000
  0.029825  0.059650  0.119301     16.000000
  0.014913  0.044738  0.134213     16.000000
  0.000000  0.029825  0.149126      8.000000
  0.149126  0.178951  0.000000      4.000000
 -0.119301 -0.089475 -0.059650     16.000000
 -0.134213 -0.104388 -0.044738     16.000000
 -0.149126 -0.119301 -0.029825     16.000000
 -0.164038 -0.134213 -0.014913     16.000000
 -0.178951 -0.149126  0.000000      4.000000
 -0.104388 -0.074563 -0.044738     16.000000
 -0.119301 -0.089475 -0.029825     16.000000
 -0.134213 -0.104388 -0.014913     16.000000
 -0.149126 -0.119301  0.000000      8.000000
 -0.089475 -0.059650 -0.029825     16.000000
 -0.104388 -0.074563 -0.014913     16.000000
 -0.119301 -0.089475  0.000000      8.000000
 -0.074563 -0.044738 -0.014913     16.000000
 -0.089475 -0.059650  0.000000      8.000000
 -0.059650 -0.029825  0.000000      8.000000
 -0.059650  0.000000  0.000000      2.000000
 -0.074563 -0.014913  0.014913      8.000000
 -0.089475 -0.029825  0.029825      8.000000
 -0.104388 -0.044738  0.044738      8.000000
 -0.119301 -0.059650  0.059650      8.000000
  0.044738  0.104388 -0.104388      8.000000
  0.029825  0.089475 -0.089475      8.000000
  0.014913  0.074563 -0.074563      8.000000
  0.000000  0.059650 -0.059650      4.000000
 -0.059650 -0.000000  0.119301      8.000000
  0.104388  0.164038 -0.044738     16.000000
  0.089475  0.149126 -0.029825      8.000000
  0.000000  0.059650  0.089475      8.000000
  0.119301  0.178951 -0.029825      8.000000
  0.104388  0.164038 -0.014913     16.000000
  0.089475  0.149126 -0.000000      8.000000
  0.014913  0.074563  0.104388     16.000000
  0.000000  0.059650  0.119301      8.000000
  0.119301  0.178951  0.000000      4.000000
 -0.149126 -0.089475 -0.059650     16.000000
 -0.164038 -0.104388 -0.044738     16.000000
 -0.178951 -0.119301 -0.029825      8.000000
 -0.134213 -0.074563 -0.044738     16.000000
 -0.149126 -0.089475 -0.029825     16.000000
 -0.164038 -0.104388 -0.014913     16.000000
 -0.178951 -0.119301  0.000000      4.000000
 -0.119301 -0.059650 -0.029825     16.000000
 -0.134213 -0.074563 -0.014913     16.000000
 -0.149126 -0.089475 -0.000000      8.000000
 -0.104388 -0.044738 -0.014913     16.000000
 -0.119301 -0.059650 -0.000000      8.000000
 -0.089475 -0.029825  0.000000      8.000000
 -0.089475  0.000000  0.000000      2.000000
 -0.104388 -0.014913  0.014913      8.000000
 -0.119301 -0.029825  0.029825      8.000000
 -0.134213 -0.044738  0.044738      8.000000
  0.029825  0.119301 -0.119301      8.000000
  0.014913  0.104388 -0.104388      8.000000
  0.000000  0.089475 -0.089475      4.000000
  0.089475  0.178951  0.000000      2.000000
 -0.178951 -0.089475 -0.059650      8.000000
 -0.164038 -0.074563 -0.044738     16.000000
 -0.178951 -0.089475 -0.029825      8.000000
 -0.149126 -0.059650 -0.029825     16.000000
 -0.164038 -0.074563 -0.014913     16.000000
 -0.178951 -0.089475  0.000000      4.000000
 -0.134213 -0.044738 -0.014913     16.000000
 -0.149126 -0.059650 -0.000000      8.000000
 -0.119301 -0.029825 -0.000000      8.000000
 -0.119301  0.000000  0.000000      2.000000
 -0.134213 -0.014913  0.014913      8.000000
 -0.149126 -0.029825  0.029825      8.000000
  0.014913  0.134213 -0.134213      8.000000
  0.000000  0.119301 -0.119301      4.000000
 -0.178951 -0.059650 -0.029825      8.000000
 -0.164038 -0.044738 -0.014913     16.000000
 -0.178951 -0.059650  0.000000      4.000000
 -0.149126 -0.029825  0.000000      8.000000
 -0.149126  0.000000  0.000000      2.000000
 -0.164038 -0.014913  0.014913      8.000000
 -0.000000  0.149126 -0.149126      4.000000
 -0.178951 -0.029825  0.000000      4.000000
 -0.178951  0.000000  0.000000      1.000000
 
 
 Subroutine IBZKPT_HF returns following result:
 ==============================================
 
 Found   1728 k-points in 1st BZ
 the following   1728 k-points will be used (e.g. in the exchange kernel)
 Following reciprocal coordinates:   # in IRBZ
  0.000000  0.000000  0.000000    0.00057870   1 t-inv F
  0.083333 -0.000000 -0.000000    0.00057870   2 t-inv F
  0.166667  0.000000 -0.000000    0.00057870   3 t-inv F
  0.250000 -0.000000 -0.000000    0.00057870   4 t-inv F
  0.333333 -0.000000 -0.000000    0.00057870   5 t-inv F
  0.416667 -0.000000 -0.000000    0.00057870   6 t-inv F
  0.500000 -0.000000 -0.000000    0.00057870   7 t-inv F
  0.083333  0.083333 -0.000000    0.00057870   8 t-inv F
  0.166667  0.083333 -0.000000    0.00057870   9 t-inv F
  0.250000  0.083333 -0.000000    0.00057870  10 t-inv F
  0.333333  0.083333 -0.000000    0.00057870  11 t-inv F
  0.416667  0.083333 -0.000000    0.00057870  12 t-inv F
  0.500000  0.083333 -0.000000    0.00057870  13 t-inv F
 -0.416667  0.083333  0.000000    0.00057870  14 t-inv F
 -0.333333  0.083333  0.000000    0.00057870  15 t-inv F
 -0.250000  0.083333  0.000000    0.00057870  16 t-inv F
 -0.166667  0.083333  0.000000    0.00057870  17 t-inv F
 -0.083333  0.083333 -0.000000    0.00057870  18 t-inv F
  0.166667  0.166667 -0.000000    0.00057870  19 t-inv F
  0.250000  0.166667 -0.000000    0.00057870  20 t-inv F
  0.333333  0.166667 -0.000000    0.00057870  21 t-inv F
  0.416667  0.166667 -0.000000    0.00057870  22 t-inv F
  0.500000  0.166667 -0.000000    0.00057870  23 t-inv F
 -0.416667  0.166667 -0.000000    0.00057870  24 t-inv F
 -0.333333  0.166667 -0.000000    0.00057870  25 t-inv F
 -0.250000  0.166667  0.000000    0.00057870  26 t-inv F
 -0.166667  0.166667 -0.000000    0.00057870  27 t-inv F
  0.250000  0.250000 -0.000000    0.00057870  28 t-inv F
  0.333333  0.250000 -0.000000    0.00057870  29 t-inv F
  0.416667  0.250000 -0.000000    0.00057870  30 t-inv F
  0.500000  0.250000 -0.000000    0.00057870  31 t-inv F
 -0.416667  0.250000 -0.000000    0.00057870  32 t-inv F
 -0.333333  0.250000 -0.000000    0.00057870  33 t-inv F
 -0.250000  0.250000  0.000000    0.00057870  34 t-inv F
  0.333333  0.333333 -0.000000    0.00057870  35 t-inv F
  0.416667  0.333333 -0.000000    0.00057870  36 t-inv F
  0.500000  0.333333 -0.000000    0.00057870  37 t-inv F
 -0.416667  0.333333  0.000000    0.00057870  38 t-inv F
 -0.333333  0.333333  0.000000    0.00057870  39 t-inv F
  0.416667  0.416667 -0.000000    0.00057870  40 t-inv F
  0.500000  0.416667 -0.000000    0.00057870  41 t-inv F
 -0.416667  0.416667  0.000000    0.00057870  42 t-inv F
  0.500000  0.500000 -0.000000    0.00057870  43 t-inv F
  0.083333 -0.000000  0.083333    0.00057870  44 t-inv F
  0.166667  0.000000  0.083333    0.00057870  45 t-inv F
  0.250000  0.000000  0.083333    0.00057870  46 t-inv F
  0.333333  0.000000  0.083333    0.00057870  47 t-inv F
  0.416667  0.000000  0.083333    0.00057870  48 t-inv F
  0.500000 -0.000000  0.083333    0.00057870  49 t-inv F
 -0.416667  0.000000  0.083333    0.00057870  50 t-inv F
 -0.333333 -0.000000  0.083333    0.00057870  51 t-inv F
 -0.250000  0.000000  0.083333    0.00057870  52 t-inv F
 -0.166667  0.000000  0.083333    0.00057870  53 t-inv F
 -0.083333  0.000000  0.083333    0.00057870  54 t-inv F
  0.250000  0.166667  0.083333    0.00057870  55 t-inv F
  0.333333  0.166667  0.083333    0.00057870  56 t-inv F
  0.416667  0.166667  0.083333    0.00057870  57 t-inv F
  0.500000  0.166667  0.083333    0.00057870  58 t-inv F
 -0.416667  0.166667  0.083333    0.00057870  59 t-inv F
  0.166667  0.250000  0.083333    0.00057870  60 t-inv F
  0.333333  0.250000  0.083333    0.00057870  61 t-inv F
  0.416667  0.250000  0.083333    0.00057870  62 t-inv F
  0.500000  0.250000  0.083333    0.00057870  63 t-inv F
 -0.416667  0.250000  0.083333    0.00057870  64 t-inv F
 -0.333333  0.250000  0.083333    0.00057870  65 t-inv F
 -0.250000  0.250000  0.083333    0.00057870  66 t-inv F
 -0.166667  0.250000  0.083333    0.00057870  67 t-inv F
  0.166667  0.333333  0.083333    0.00057870  68 t-inv F
  0.250000  0.333333  0.083333    0.00057870  69 t-inv F
  0.416667  0.333333  0.083333    0.00057870  70 t-inv F
  0.500000  0.333333  0.083333    0.00057870  71 t-inv F
 -0.416667  0.333333  0.083333    0.00057870  72 t-inv F
 -0.333333  0.333333  0.083333    0.00057870  73 t-inv F
 -0.250000  0.333333  0.083333    0.00057870  74 t-inv F
  0.166667  0.416667  0.083333    0.00057870  75 t-inv F
  0.250000  0.416667  0.083333    0.00057870  76 t-inv F
  0.333333  0.416667  0.083333    0.00057870  77 t-inv F
  0.500000  0.416667  0.083333    0.00057870  78 t-inv F
 -0.416667  0.416667  0.083333    0.00057870  79 t-inv F
 -0.333333  0.416667  0.083333    0.00057870  80 t-inv F
  0.166667  0.500000  0.083333    0.00057870  81 t-inv F
  0.250000  0.500000  0.083333    0.00057870  82 t-inv F
  0.333333  0.500000  0.083333    0.00057870  83 t-inv F
  0.416667  0.500000  0.083333    0.00057870  84 t-inv F
 -0.416667  0.500000  0.083333    0.00057870  85 t-inv F
  0.166667 -0.416667  0.083333    0.00057870  86 t-inv F
  0.250000 -0.416667  0.083333    0.00057870  87 t-inv F
  0.333333 -0.416667  0.083333    0.00057870  88 t-inv F
  0.416667 -0.416667  0.083333    0.00057870  89 t-inv F
  0.500000 -0.416667  0.083333    0.00057870  90 t-inv F
  0.166667 -0.333333  0.083333    0.00057870  91 t-inv F
  0.250000 -0.333333  0.083333    0.00057870  92 t-inv F
  0.333333 -0.333333  0.083333    0.00057870  93 t-inv F
  0.416667 -0.333333  0.083333    0.00057870  94 t-inv F
  0.166667 -0.250000  0.083333    0.00057870  95 t-inv F
  0.250000 -0.250000  0.083333    0.00057870  96 t-inv F
  0.333333 -0.250000  0.083333    0.00057870  97 t-inv F
  0.166667 -0.166667  0.083333    0.00057870  98 t-inv F
  0.250000 -0.166667  0.083333    0.00057870  99 t-inv F
  0.166667 -0.083333  0.083333    0.00057870 100 t-inv F
  0.166667 -0.000000  0.166667    0.00057870 101 t-inv F
  0.250000 -0.000000  0.166667    0.00057870 102 t-inv F
  0.333333 -0.000000  0.166667    0.00057870 103 t-inv F
  0.416667  0.000000  0.166667    0.00057870 104 t-inv F
  0.500000 -0.000000  0.166667    0.00057870 105 t-inv F
 -0.416667 -0.000000  0.166667    0.00057870 106 t-inv F
 -0.333333  0.000000  0.166667    0.00057870 107 t-inv F
 -0.250000  0.000000  0.166667    0.00057870 108 t-inv F
 -0.166667 -0.000000  0.166667    0.00057870 109 t-inv F
  0.500000  0.333333  0.166667    0.00057870 110 t-inv F
 -0.416667  0.333333  0.166667    0.00057870 111 t-inv F
 -0.333333  0.333333  0.166667    0.00057870 112 t-inv F
  0.250000  0.416667  0.166667    0.00057870 113 t-inv F
 -0.416667  0.416667  0.166667    0.00057870 114 t-inv F
 -0.333333  0.416667  0.166667    0.00057870 115 t-inv F
 -0.250000  0.416667  0.166667    0.00057870 116 t-inv F
  0.250000  0.500000  0.166667    0.00057870 117 t-inv F
  0.333333  0.500000  0.166667    0.00057870 118 t-inv F
 -0.333333  0.500000  0.166667    0.00057870 119 t-inv F
  0.250000 -0.416667  0.166667    0.00057870 120 t-inv F
  0.333333 -0.416667  0.166667    0.00057870 121 t-inv F
  0.416667 -0.416667  0.166667    0.00057870 122 t-inv F
  0.250000 -0.333333  0.166667    0.00057870 123 t-inv F
  0.333333 -0.333333  0.166667    0.00057870 124 t-inv F
  0.416667 -0.333333  0.166667    0.00057870 125 t-inv F
  0.500000 -0.333333  0.166667    0.00057870 126 t-inv F
  0.250000 -0.250000  0.166667    0.00057870 127 t-inv F
  0.333333 -0.250000  0.166667    0.00057870 128 t-inv F
  0.416667 -0.250000  0.166667    0.00057870 129 t-inv F
  0.250000 -0.166667  0.166667    0.00057870 130 t-inv F
  0.333333 -0.166667  0.166667    0.00057870 131 t-inv F
  0.250000 -0.083333  0.166667    0.00057870 132 t-inv F
  0.250000 -0.000000  0.250000    0.00057870 133 t-inv F
  0.333333 -0.000000  0.250000    0.00057870 134 t-inv F
  0.416667 -0.000000  0.250000    0.00057870 135 t-inv F
  0.500000 -0.000000  0.250000    0.00057870 136 t-inv F
 -0.416667 -0.000000  0.250000    0.00057870 137 t-inv F
 -0.333333  0.000000  0.250000    0.00057870 138 t-inv F
 -0.250000  0.000000  0.250000    0.00057870 139 t-inv F
 -0.250000  0.500000  0.250000    0.00057870 140 t-inv F
  0.333333 -0.416667  0.250000    0.00057870 141 t-inv F
  0.333333 -0.333333  0.250000    0.00057870 142 t-inv F
  0.416667 -0.333333  0.250000    0.00057870 143 t-inv F
  0.333333 -0.250000  0.250000    0.00057870 144 t-inv F
  0.416667 -0.250000  0.250000    0.00057870 145 t-inv F
  0.500000 -0.250000  0.250000    0.00057870 146 t-inv F
  0.333333 -0.166667  0.250000    0.00057870 147 t-inv F
  0.416667 -0.166667  0.250000    0.00057870 148 t-inv F
  0.333333 -0.083333  0.250000    0.00057870 149 t-inv F
  0.333333 -0.000000  0.333333    0.00057870 150 t-inv F
  0.416667 -0.000000  0.333333    0.00057870 151 t-inv F
  0.500000  0.000000  0.333333    0.00057870 152 t-inv F
 -0.416667  0.000000  0.333333    0.00057870 153 t-inv F
 -0.333333  0.000000  0.333333    0.00057870 154 t-inv F
  0.416667 -0.250000  0.333333    0.00057870 155 t-inv F
  0.416667 -0.166667  0.333333    0.00057870 156 t-inv F
  0.500000 -0.166667  0.333333    0.00057870 157 t-inv F
  0.416667 -0.083333  0.333333    0.00057870 158 t-inv F
  0.416667 -0.000000  0.416667    0.00057870 159 t-inv F
  0.500000 -0.000000  0.416667    0.00057870 160 t-inv F
 -0.416667  0.000000  0.416667    0.00057870 161 t-inv F
  0.500000 -0.083333  0.416667    0.00057870 162 t-inv F
  0.500000 -0.000000  0.500000    0.00057870 163 t-inv F
 -0.000000 -0.083333  0.000000    0.00057870   2 t-inv F
  0.083333  0.083333  0.083333    0.00057870   2 t-inv F
  0.000000  0.000000  0.083333    0.00057870   2 t-inv F
 -0.000000 -0.166667 -0.000000    0.00057870   3 t-inv F
  0.166667  0.166667  0.166667    0.00057870   3 t-inv F
 -0.000000 -0.000000  0.166667    0.00057870   3 t-inv F
 -0.000000 -0.250000 -0.000000    0.00057870   4 t-inv F
  0.250000  0.250000  0.250000    0.00057870   4 t-inv F
 -0.000000  0.000000  0.250000    0.00057870   4 t-inv F
 -0.000000 -0.333333 -0.000000    0.00057870   5 t-inv F
  0.333333  0.333333  0.333333    0.00057870   5 t-inv F
 -0.000000  0.000000  0.333333    0.00057870   5 t-inv F
 -0.000000 -0.416667 -0.000000    0.00057870   6 t-inv F
  0.416667  0.416667  0.416667    0.00057870   6 t-inv F
 -0.000000  0.000000  0.416667    0.00057870   6 t-inv F
 -0.000000 -0.500000 -0.000000    0.00057870   7 t-inv F
  0.500000  0.500000  0.500000    0.00057870   7 t-inv F
 -0.000000  0.000000  0.500000    0.00057870   7 t-inv F
 -0.000000 -0.083333 -0.083333    0.00057870   8 t-inv F
 -0.083333 -0.083333 -0.000000    0.00057870   8 t-inv F
  0.000000  0.083333  0.083333    0.00057870   8 t-inv F
 -0.000000 -0.166667 -0.083333    0.00057870   9 t-inv F
 -0.083333 -0.166667 -0.000000    0.00057870   9 t-inv F
  0.083333 -0.083333 -0.083333    0.00057870   9 t-inv F
  0.166667  0.166667  0.083333    0.00057870   9 t-inv F
  0.083333  0.166667  0.166667    0.00057870   9 t-inv F
 -0.083333 -0.083333  0.083333    0.00057870   9 t-inv F
 -0.000000  0.083333  0.166667    0.00057870   9 t-inv F
 -0.000000 -0.250000 -0.083333    0.00057870  10 t-inv F
 -0.083333 -0.250000 -0.000000    0.00057870  10 t-inv F
  0.166667 -0.083333 -0.083333    0.00057870  10 t-inv F
  0.250000  0.250000  0.166667    0.00057870  10 t-inv F
  0.166667  0.250000  0.250000    0.00057870  10 t-inv F
 -0.083333 -0.083333  0.166667    0.00057870  10 t-inv F
 -0.000000  0.083333  0.250000    0.00057870  10 t-inv F
 -0.000000 -0.333333 -0.083333    0.00057870  11 t-inv F
 -0.083333 -0.333333 -0.000000    0.00057870  11 t-inv F
  0.250000 -0.083333 -0.083333    0.00057870  11 t-inv F
  0.333333  0.333333  0.250000    0.00057870  11 t-inv F
  0.250000  0.333333  0.333333    0.00057870  11 t-inv F
 -0.083333 -0.083333  0.250000    0.00057870  11 t-inv F
 -0.000000  0.083333  0.333333    0.00057870  11 t-inv F
 -0.000000 -0.416667 -0.083333    0.00057870  12 t-inv F
 -0.083333 -0.416667 -0.000000    0.00057870  12 t-inv F
  0.333333 -0.083333 -0.083333    0.00057870  12 t-inv F
  0.416667  0.416667  0.333333    0.00057870  12 t-inv F
  0.333333  0.416667  0.416667    0.00057870  12 t-inv F
 -0.083333 -0.083333  0.333333    0.00057870  12 t-inv F
 -0.000000  0.083333  0.416667    0.00057870  12 t-inv F
 -0.000000 -0.500000 -0.083333    0.00057870  13 t-inv F
 -0.083333 -0.500000 -0.000000    0.00057870  13 t-inv F
  0.416667 -0.083333 -0.083333    0.00057870  13 t-inv F
  0.500000  0.500000  0.416667    0.00057870  13 t-inv F
  0.416667  0.500000  0.500000    0.00057870  13 t-inv F
 -0.083333 -0.083333  0.416667    0.00057870  13 t-inv F
 -0.000000  0.083333  0.500000    0.00057870  13 t-inv F
  0.000000  0.416667 -0.083333    0.00057870  14 t-inv F
 -0.083333  0.416667  0.000000    0.00057870  14 t-inv F
 -0.500000 -0.083333 -0.083333    0.00057870  14 t-inv F
 -0.416667 -0.416667 -0.500000    0.00057870  14 t-inv F
 -0.500000 -0.416667 -0.416667    0.00057870  14 t-inv F
 -0.083333 -0.083333 -0.500000    0.00057870  14 t-inv F
  0.000000  0.083333 -0.416667    0.00057870  14 t-inv F
  0.000000  0.333333 -0.083333    0.00057870  15 t-inv F
 -0.083333  0.333333  0.000000    0.00057870  15 t-inv F
 -0.416667 -0.083333 -0.083333    0.00057870  15 t-inv F
 -0.333333 -0.333333 -0.416667    0.00057870  15 t-inv F
 -0.416667 -0.333333 -0.333333    0.00057870  15 t-inv F
 -0.083333 -0.083333 -0.416667    0.00057870  15 t-inv F
  0.000000  0.083333 -0.333333    0.00057870  15 t-inv F
  0.000000  0.250000 -0.083333    0.00057870  16 t-inv F
 -0.083333  0.250000  0.000000    0.00057870  16 t-inv F
 -0.333333 -0.083333 -0.083333    0.00057870  16 t-inv F
 -0.250000 -0.250000 -0.333333    0.00057870  16 t-inv F
 -0.333333 -0.250000 -0.250000    0.00057870  16 t-inv F
 -0.083333 -0.083333 -0.333333    0.00057870  16 t-inv F
  0.000000  0.083333 -0.250000    0.00057870  16 t-inv F
  0.000000  0.166667 -0.083333    0.00057870  17 t-inv F
 -0.083333  0.166667  0.000000    0.00057870  17 t-inv F
 -0.250000 -0.083333 -0.083333    0.00057870  17 t-inv F
 -0.166667 -0.166667 -0.250000    0.00057870  17 t-inv F
 -0.250000 -0.166667 -0.166667    0.00057870  17 t-inv F
 -0.083333 -0.083333 -0.250000    0.00057870  17 t-inv F
  0.000000  0.083333 -0.166667    0.00057870  17 t-inv F
 -0.000000  0.083333 -0.083333    0.00057870  18 t-inv F
 -0.166667 -0.083333 -0.083333    0.00057870  18 t-inv F
 -0.083333 -0.083333 -0.166667    0.00057870  18 t-inv F
 -0.000000 -0.166667 -0.166667    0.00057870  19 t-inv F
 -0.166667 -0.166667 -0.000000    0.00057870  19 t-inv F
  0.000000  0.166667  0.166667    0.00057870  19 t-inv F
 -0.000000 -0.250000 -0.166667    0.00057870  20 t-inv F
 -0.166667 -0.250000 -0.000000    0.00057870  20 t-inv F
  0.083333 -0.166667 -0.166667    0.00057870  20 t-inv F
  0.250000  0.250000  0.083333    0.00057870  20 t-inv F
  0.083333  0.250000  0.250000    0.00057870  20 t-inv F
 -0.166667 -0.166667  0.083333    0.00057870  20 t-inv F
 -0.000000  0.166667  0.250000    0.00057870  20 t-inv F
 -0.000000 -0.333333 -0.166667    0.00057870  21 t-inv F
 -0.166667 -0.333333 -0.000000    0.00057870  21 t-inv F
  0.166667 -0.166667 -0.166667    0.00057870  21 t-inv F
  0.333333  0.333333  0.166667    0.00057870  21 t-inv F
  0.166667  0.333333  0.333333    0.00057870  21 t-inv F
 -0.166667 -0.166667  0.166667    0.00057870  21 t-inv F
 -0.000000  0.166667  0.333333    0.00057870  21 t-inv F
 -0.000000 -0.416667 -0.166667    0.00057870  22 t-inv F
 -0.166667 -0.416667 -0.000000    0.00057870  22 t-inv F
  0.250000 -0.166667 -0.166667    0.00057870  22 t-inv F
  0.416667  0.416667  0.250000    0.00057870  22 t-inv F
  0.250000  0.416667  0.416667    0.00057870  22 t-inv F
 -0.166667 -0.166667  0.250000    0.00057870  22 t-inv F
 -0.000000  0.166667  0.416667    0.00057870  22 t-inv F
 -0.000000 -0.500000 -0.166667    0.00057870  23 t-inv F
 -0.166667 -0.500000 -0.000000    0.00057870  23 t-inv F
  0.333333 -0.166667 -0.166667    0.00057870  23 t-inv F
  0.500000  0.500000  0.333333    0.00057870  23 t-inv F
  0.333333  0.500000  0.500000    0.00057870  23 t-inv F
 -0.166667 -0.166667  0.333333    0.00057870  23 t-inv F
 -0.000000  0.166667  0.500000    0.00057870  23 t-inv F
 -0.000000  0.416667 -0.166667    0.00057870  24 t-inv F
 -0.166667  0.416667 -0.000000    0.00057870  24 t-inv F
 -0.583333 -0.166667 -0.166667    0.00057870  24 t-inv F
 -0.416667 -0.416667 -0.583333    0.00057870  24 t-inv F
 -0.583333 -0.416667 -0.416667    0.00057870  24 t-inv F
 -0.166667 -0.166667 -0.583333    0.00057870  24 t-inv F
 -0.000000  0.166667 -0.416667    0.00057870  24 t-inv F
 -0.000000  0.333333 -0.166667    0.00057870  25 t-inv F
 -0.166667  0.333333 -0.000000    0.00057870  25 t-inv F
 -0.500000 -0.166667 -0.166667    0.00057870  25 t-inv F
 -0.333333 -0.333333 -0.500000    0.00057870  25 t-inv F
 -0.500000 -0.333333 -0.333333    0.00057870  25 t-inv F
 -0.166667 -0.166667 -0.500000    0.00057870  25 t-inv F
 -0.000000  0.166667 -0.333333    0.00057870  25 t-inv F
  0.000000  0.250000 -0.166667    0.00057870  26 t-inv F
 -0.166667  0.250000  0.000000    0.00057870  26 t-inv F
 -0.416667 -0.166667 -0.166667    0.00057870  26 t-inv F
 -0.250000 -0.250000 -0.416667    0.00057870  26 t-inv F
 -0.416667 -0.250000 -0.250000    0.00057870  26 t-inv F
 -0.166667 -0.166667 -0.416667    0.00057870  26 t-inv F
  0.000000  0.166667 -0.250000    0.00057870  26 t-inv F
 -0.000000  0.166667 -0.166667    0.00057870  27 t-inv F
 -0.333333 -0.166667 -0.166667    0.00057870  27 t-inv F
 -0.166667 -0.166667 -0.333333    0.00057870  27 t-inv F
 -0.000000 -0.250000 -0.250000    0.00057870  28 t-inv F
 -0.250000 -0.250000 -0.000000    0.00057870  28 t-inv F
  0.000000  0.250000  0.250000    0.00057870  28 t-inv F
 -0.000000 -0.333333 -0.250000    0.00057870  29 t-inv F
 -0.250000 -0.333333 -0.000000    0.00057870  29 t-inv F
  0.083333 -0.250000 -0.250000    0.00057870  29 t-inv F
  0.333333  0.333333  0.083333    0.00057870  29 t-inv F
  0.083333  0.333333  0.333333    0.00057870  29 t-inv F
 -0.250000 -0.250000  0.083333    0.00057870  29 t-inv F
 -0.000000  0.250000  0.333333    0.00057870  29 t-inv F
 -0.000000 -0.416667 -0.250000    0.00057870  30 t-inv F
 -0.250000 -0.416667 -0.000000    0.00057870  30 t-inv F
  0.166667 -0.250000 -0.250000    0.00057870  30 t-inv F
  0.416667  0.416667  0.166667    0.00057870  30 t-inv F
  0.166667  0.416667  0.416667    0.00057870  30 t-inv F
 -0.250000 -0.250000  0.166667    0.00057870  30 t-inv F
 -0.000000  0.250000  0.416667    0.00057870  30 t-inv F
 -0.000000 -0.500000 -0.250000    0.00057870  31 t-inv F
 -0.250000 -0.500000 -0.000000    0.00057870  31 t-inv F
  0.250000 -0.250000 -0.250000    0.00057870  31 t-inv F
  0.500000  0.500000  0.250000    0.00057870  31 t-inv F
  0.250000  0.500000  0.500000    0.00057870  31 t-inv F
 -0.250000 -0.250000  0.250000    0.00057870  31 t-inv F
 -0.000000  0.250000  0.500000    0.00057870  31 t-inv F
 -0.000000  0.416667 -0.250000    0.00057870  32 t-inv F
 -0.250000  0.416667 -0.000000    0.00057870  32 t-inv F
 -0.666667 -0.250000 -0.250000    0.00057870  32 t-inv F
 -0.416667 -0.416667 -0.666667    0.00057870  32 t-inv F
 -0.666667 -0.416667 -0.416667    0.00057870  32 t-inv F
 -0.250000 -0.250000 -0.666667    0.00057870  32 t-inv F
 -0.000000  0.250000 -0.416667    0.00057870  32 t-inv F
 -0.000000  0.333333 -0.250000    0.00057870  33 t-inv F
 -0.250000  0.333333 -0.000000    0.00057870  33 t-inv F
 -0.583333 -0.250000 -0.250000    0.00057870  33 t-inv F
 -0.333333 -0.333333 -0.583333    0.00057870  33 t-inv F
 -0.583333 -0.333333 -0.333333    0.00057870  33 t-inv F
 -0.250000 -0.250000 -0.583333    0.00057870  33 t-inv F
 -0.000000  0.250000 -0.333333    0.00057870  33 t-inv F
  0.000000  0.250000 -0.250000    0.00057870  34 t-inv F
 -0.500000 -0.250000 -0.250000    0.00057870  34 t-inv F
 -0.250000 -0.250000 -0.500000    0.00057870  34 t-inv F
 -0.000000 -0.333333 -0.333333    0.00057870  35 t-inv F
 -0.333333 -0.333333 -0.000000    0.00057870  35 t-inv F
  0.000000  0.333333  0.333333    0.00057870  35 t-inv F
 -0.000000 -0.416667 -0.333333    0.00057870  36 t-inv F
 -0.333333 -0.416667 -0.000000    0.00057870  36 t-inv F
  0.083333 -0.333333 -0.333333    0.00057870  36 t-inv F
  0.416667  0.416667  0.083333    0.00057870  36 t-inv F
  0.083333  0.416667  0.416667    0.00057870  36 t-inv F
 -0.333333 -0.333333  0.083333    0.00057870  36 t-inv F
 -0.000000  0.333333  0.416667    0.00057870  36 t-inv F
 -0.000000 -0.500000 -0.333333    0.00057870  37 t-inv F
 -0.333333 -0.500000 -0.000000    0.00057870  37 t-inv F
  0.166667 -0.333333 -0.333333    0.00057870  37 t-inv F
  0.500000  0.500000  0.166667    0.00057870  37 t-inv F
  0.166667  0.500000  0.500000    0.00057870  37 t-inv F
 -0.333333 -0.333333  0.166667    0.00057870  37 t-inv F
 -0.000000  0.333333  0.500000    0.00057870  37 t-inv F
  0.000000  0.416667 -0.333333    0.00057870  38 t-inv F
 -0.333333  0.416667  0.000000    0.00057870  38 t-inv F
 -0.750000 -0.333333 -0.333333    0.00057870  38 t-inv F
 -0.416667 -0.416667 -0.750000    0.00057870  38 t-inv F
 -0.750000 -0.416667 -0.416667    0.00057870  38 t-inv F
 -0.333333 -0.333333 -0.750000    0.00057870  38 t-inv F
  0.000000  0.333333 -0.416667    0.00057870  38 t-inv F
  0.000000  0.333333 -0.333333    0.00057870  39 t-inv F
 -0.666667 -0.333333 -0.333333    0.00057870  39 t-inv F
 -0.333333 -0.333333 -0.666667    0.00057870  39 t-inv F
 -0.000000 -0.416667 -0.416667    0.00057870  40 t-inv F
 -0.416667 -0.416667 -0.000000    0.00057870  40 t-inv F
  0.000000  0.416667  0.416667    0.00057870  40 t-inv F
 -0.000000 -0.500000 -0.416667    0.00057870  41 t-inv F
 -0.416667 -0.500000 -0.000000    0.00057870  41 t-inv F
  0.083333 -0.416667 -0.416667    0.00057870  41 t-inv F
  0.500000  0.500000  0.083333    0.00057870  41 t-inv F
  0.083333  0.500000  0.500000    0.00057870  41 t-inv F
 -0.416667 -0.416667  0.083333    0.00057870  41 t-inv F
 -0.000000  0.416667  0.500000    0.00057870  41 t-inv F
  0.000000  0.416667 -0.416667    0.00057870  42 t-inv F
 -0.833333 -0.416667 -0.416667    0.00057870  42 t-inv F
 -0.416667 -0.416667 -0.833333    0.00057870  42 t-inv F
 -0.000000 -0.500000 -0.500000    0.00057870  43 t-inv F
  0.083333 -0.083333  0.083333    0.00057870  45 t-inv F
  0.166667  0.083333  0.166667    0.00057870  45 t-inv F
  0.083333 -0.000000  0.166667    0.00057870  45 t-inv F
  0.083333 -0.166667  0.083333    0.00057870  46 t-inv F
  0.250000  0.166667  0.250000    0.00057870  46 t-inv F
  0.083333 -0.000000  0.250000    0.00057870  46 t-inv F
  0.083333 -0.250000  0.083333    0.00057870  47 t-inv F
  0.333333  0.250000  0.333333    0.00057870  47 t-inv F
  0.083333 -0.000000  0.333333    0.00057870  47 t-inv F
  0.083333 -0.333333  0.083333    0.00057870  48 t-inv F
  0.416667  0.333333  0.416667    0.00057870  48 t-inv F
  0.083333 -0.000000  0.416667    0.00057870  48 t-inv F
  0.083333 -0.416667  0.083333    0.00057870  49 t-inv F
  0.500000  0.416667  0.500000    0.00057870  49 t-inv F
  0.083333  0.000000  0.500000    0.00057870  49 t-inv F
  0.083333  0.500000  0.083333    0.00057870  50 t-inv F
 -0.416667 -0.500000 -0.416667    0.00057870  50 t-inv F
  0.083333 -0.000000 -0.416667    0.00057870  50 t-inv F
  0.083333  0.416667  0.083333    0.00057870  51 t-inv F
 -0.333333 -0.416667 -0.333333    0.00057870  51 t-inv F
  0.083333  0.000000 -0.333333    0.00057870  51 t-inv F
  0.083333  0.333333  0.083333    0.00057870  52 t-inv F
 -0.250000 -0.333333 -0.250000    0.00057870  52 t-inv F
  0.083333 -0.000000 -0.250000    0.00057870  52 t-inv F
  0.083333  0.250000  0.083333    0.00057870  53 t-inv F
 -0.166667 -0.250000 -0.166667    0.00057870  53 t-inv F
  0.083333 -0.000000 -0.166667    0.00057870  53 t-inv F
  0.083333  0.166667  0.083333    0.00057870  54 t-inv F
 -0.083333 -0.166667 -0.083333    0.00057870  54 t-inv F
  0.083333 -0.000000 -0.083333    0.00057870  54 t-inv F
  0.083333 -0.166667 -0.083333    0.00057870  55 t-inv F
 -0.083333 -0.166667  0.083333    0.00057870  55 t-inv F
  0.083333  0.166667  0.250000    0.00057870  55 t-inv F
  0.083333 -0.250000 -0.083333    0.00057870  56 t-inv F
 -0.083333 -0.250000  0.083333    0.00057870  56 t-inv F
  0.166667 -0.166667 -0.083333    0.00057870  56 t-inv F
  0.333333  0.250000  0.166667    0.00057870  56 t-inv F
  0.166667  0.250000  0.333333    0.00057870  56 t-inv F
 -0.083333 -0.166667  0.166667    0.00057870  56 t-inv F
  0.083333  0.166667  0.333333    0.00057870  56 t-inv F
  0.083333 -0.333333 -0.083333    0.00057870  57 t-inv F
 -0.083333 -0.333333  0.083333    0.00057870  57 t-inv F
  0.250000 -0.166667 -0.083333    0.00057870  57 t-inv F
  0.416667  0.333333  0.250000    0.00057870  57 t-inv F
  0.250000  0.333333  0.416667    0.00057870  57 t-inv F
 -0.083333 -0.166667  0.250000    0.00057870  57 t-inv F
  0.083333  0.166667  0.416667    0.00057870  57 t-inv F
  0.083333 -0.416667 -0.083333    0.00057870  58 t-inv F
 -0.083333 -0.416667  0.083333    0.00057870  58 t-inv F
  0.333333 -0.166667 -0.083333    0.00057870  58 t-inv F
  0.500000  0.416667  0.333333    0.00057870  58 t-inv F
  0.333333  0.416667  0.500000    0.00057870  58 t-inv F
 -0.083333 -0.166667  0.333333    0.00057870  58 t-inv F
  0.083333  0.166667  0.500000    0.00057870  58 t-inv F
  0.083333  0.500000 -0.083333    0.00057870  59 t-inv F
 -0.083333  0.500000  0.083333    0.00057870  59 t-inv F
 -0.583333 -0.166667 -0.083333    0.00057870  59 t-inv F
 -0.416667 -0.500000 -0.583333    0.00057870  59 t-inv F
 -0.583333 -0.500000 -0.416667    0.00057870  59 t-inv F
 -0.083333 -0.166667 -0.583333    0.00057870  59 t-inv F
  0.083333  0.166667 -0.416667    0.00057870  59 t-inv F
  0.083333 -0.083333 -0.166667    0.00057870  60 t-inv F
 -0.166667 -0.083333  0.083333    0.00057870  60 t-inv F
 -0.083333 -0.250000 -0.166667    0.00057870  60 t-inv F
  0.166667  0.083333 -0.083333    0.00057870  60 t-inv F
 -0.083333  0.083333  0.166667    0.00057870  60 t-inv F
 -0.166667 -0.250000 -0.083333    0.00057870  60 t-inv F
  0.083333  0.250000  0.166667    0.00057870  60 t-inv F
  0.083333 -0.250000 -0.166667    0.00057870  61 t-inv F
 -0.166667 -0.250000  0.083333    0.00057870  61 t-inv F
  0.083333  0.250000  0.333333    0.00057870  61 t-inv F
  0.083333 -0.333333 -0.166667    0.00057870  62 t-inv F
 -0.166667 -0.333333  0.083333    0.00057870  62 t-inv F
  0.166667 -0.250000 -0.166667    0.00057870  62 t-inv F
  0.416667  0.333333  0.166667    0.00057870  62 t-inv F
  0.166667  0.333333  0.416667    0.00057870  62 t-inv F
 -0.166667 -0.250000  0.166667    0.00057870  62 t-inv F
  0.083333  0.250000  0.416667    0.00057870  62 t-inv F
  0.083333 -0.416667 -0.166667    0.00057870  63 t-inv F
 -0.166667 -0.416667  0.083333    0.00057870  63 t-inv F
  0.250000 -0.250000 -0.166667    0.00057870  63 t-inv F
  0.500000  0.416667  0.250000    0.00057870  63 t-inv F
  0.250000  0.416667  0.500000    0.00057870  63 t-inv F
 -0.166667 -0.250000  0.250000    0.00057870  63 t-inv F
  0.083333  0.250000  0.500000    0.00057870  63 t-inv F
  0.083333  0.500000 -0.166667    0.00057870  64 t-inv F
 -0.166667  0.500000  0.083333    0.00057870  64 t-inv F
 -0.666667 -0.250000 -0.166667    0.00057870  64 t-inv F
 -0.416667 -0.500000 -0.666667    0.00057870  64 t-inv F
 -0.666667 -0.500000 -0.416667    0.00057870  64 t-inv F
 -0.166667 -0.250000 -0.666667    0.00057870  64 t-inv F
  0.083333  0.250000 -0.416667    0.00057870  64 t-inv F
  0.083333  0.416667 -0.166667    0.00057870  65 t-inv F
 -0.166667  0.416667  0.083333    0.00057870  65 t-inv F
 -0.583333 -0.250000 -0.166667    0.00057870  65 t-inv F
 -0.333333 -0.416667 -0.583333    0.00057870  65 t-inv F
 -0.583333 -0.416667 -0.333333    0.00057870  65 t-inv F
 -0.166667 -0.250000 -0.583333    0.00057870  65 t-inv F
  0.083333  0.250000 -0.333333    0.00057870  65 t-inv F
  0.083333  0.333333 -0.166667    0.00057870  66 t-inv F
 -0.166667  0.333333  0.083333    0.00057870  66 t-inv F
 -0.500000 -0.250000 -0.166667    0.00057870  66 t-inv F
 -0.250000 -0.333333 -0.500000    0.00057870  66 t-inv F
 -0.500000 -0.333333 -0.250000    0.00057870  66 t-inv F
 -0.166667 -0.250000 -0.500000    0.00057870  66 t-inv F
  0.083333  0.250000 -0.250000    0.00057870  66 t-inv F
  0.083333  0.250000 -0.166667    0.00057870  67 t-inv F
 -0.416667 -0.250000 -0.166667    0.00057870  67 t-inv F
 -0.166667 -0.250000 -0.416667    0.00057870  67 t-inv F
  0.083333 -0.083333 -0.250000    0.00057870  68 t-inv F
 -0.250000 -0.083333  0.083333    0.00057870  68 t-inv F
 -0.166667 -0.333333 -0.250000    0.00057870  68 t-inv F
  0.166667  0.083333 -0.166667    0.00057870  68 t-inv F
 -0.166667  0.083333  0.166667    0.00057870  68 t-inv F
 -0.250000 -0.333333 -0.166667    0.00057870  68 t-inv F
  0.083333  0.333333  0.166667    0.00057870  68 t-inv F
  0.083333 -0.166667 -0.250000    0.00057870  69 t-inv F
 -0.250000 -0.166667  0.083333    0.00057870  69 t-inv F
 -0.083333 -0.333333 -0.250000    0.00057870  69 t-inv F
  0.250000  0.166667 -0.083333    0.00057870  69 t-inv F
 -0.083333  0.166667  0.250000    0.00057870  69 t-inv F
 -0.250000 -0.333333 -0.083333    0.00057870  69 t-inv F
  0.083333  0.333333  0.250000    0.00057870  69 t-inv F
  0.083333 -0.333333 -0.250000    0.00057870  70 t-inv F
 -0.250000 -0.333333  0.083333    0.00057870  70 t-inv F
  0.083333  0.333333  0.416667    0.00057870  70 t-inv F
  0.083333 -0.416667 -0.250000    0.00057870  71 t-inv F
 -0.250000 -0.416667  0.083333    0.00057870  71 t-inv F
  0.166667 -0.333333 -0.250000    0.00057870  71 t-inv F
  0.500000  0.416667  0.166667    0.00057870  71 t-inv F
  0.166667  0.416667  0.500000    0.00057870  71 t-inv F
 -0.250000 -0.333333  0.166667    0.00057870  71 t-inv F
  0.083333  0.333333  0.500000    0.00057870  71 t-inv F
  0.083333  0.500000 -0.250000    0.00057870  72 t-inv F
 -0.250000  0.500000  0.083333    0.00057870  72 t-inv F
 -0.750000 -0.333333 -0.250000    0.00057870  72 t-inv F
 -0.416667 -0.500000 -0.750000    0.00057870  72 t-inv F
 -0.750000 -0.500000 -0.416667    0.00057870  72 t-inv F
 -0.250000 -0.333333 -0.750000    0.00057870  72 t-inv F
  0.083333  0.333333 -0.416667    0.00057870  72 t-inv F
  0.083333  0.416667 -0.250000    0.00057870  73 t-inv F
 -0.250000  0.416667  0.083333    0.00057870  73 t-inv F
 -0.666667 -0.333333 -0.250000    0.00057870  73 t-inv F
 -0.333333 -0.416667 -0.666667    0.00057870  73 t-inv F
 -0.666667 -0.416667 -0.333333    0.00057870  73 t-inv F
 -0.250000 -0.333333 -0.666667    0.00057870  73 t-inv F
  0.083333  0.333333 -0.333333    0.00057870  73 t-inv F
  0.083333  0.333333 -0.250000    0.00057870  74 t-inv F
 -0.583333 -0.333333 -0.250000    0.00057870  74 t-inv F
 -0.250000 -0.333333 -0.583333    0.00057870  74 t-inv F
  0.083333 -0.083333 -0.333333    0.00057870  75 t-inv F
 -0.333333 -0.083333  0.083333    0.00057870  75 t-inv F
 -0.250000 -0.416667 -0.333333    0.00057870  75 t-inv F
  0.166667  0.083333 -0.250000    0.00057870  75 t-inv F
 -0.250000  0.083333  0.166667    0.00057870  75 t-inv F
 -0.333333 -0.416667 -0.250000    0.00057870  75 t-inv F
  0.083333  0.416667  0.166667    0.00057870  75 t-inv F
  0.083333 -0.166667 -0.333333    0.00057870  76 t-inv F
 -0.333333 -0.166667  0.083333    0.00057870  76 t-inv F
 -0.166667 -0.416667 -0.333333    0.00057870  76 t-inv F
  0.250000  0.166667 -0.166667    0.00057870  76 t-inv F
 -0.166667  0.166667  0.250000    0.00057870  76 t-inv F
 -0.333333 -0.416667 -0.166667    0.00057870  76 t-inv F
  0.083333  0.416667  0.250000    0.00057870  76 t-inv F
  0.083333 -0.250000 -0.333333    0.00057870  77 t-inv F
 -0.333333 -0.250000  0.083333    0.00057870  77 t-inv F
 -0.083333 -0.416667 -0.333333    0.00057870  77 t-inv F
  0.333333  0.250000 -0.083333    0.00057870  77 t-inv F
 -0.083333  0.250000  0.333333    0.00057870  77 t-inv F
 -0.333333 -0.416667 -0.083333    0.00057870  77 t-inv F
  0.083333  0.416667  0.333333    0.00057870  77 t-inv F
  0.083333 -0.416667 -0.333333    0.00057870  78 t-inv F
 -0.333333 -0.416667  0.083333    0.00057870  78 t-inv F
  0.083333  0.416667  0.500000    0.00057870  78 t-inv F
  0.083333  0.500000 -0.333333    0.00057870  79 t-inv F
 -0.333333  0.500000  0.083333    0.00057870  79 t-inv F
 -0.833333 -0.416667 -0.333333    0.00057870  79 t-inv F
 -0.416667 -0.500000 -0.833333    0.00057870  79 t-inv F
 -0.833333 -0.500000 -0.416667    0.00057870  79 t-inv F
 -0.333333 -0.416667 -0.833333    0.00057870  79 t-inv F
  0.083333  0.416667 -0.416667    0.00057870  79 t-inv F
  0.083333  0.416667 -0.333333    0.00057870  80 t-inv F
 -0.750000 -0.416667 -0.333333    0.00057870  80 t-inv F
 -0.333333 -0.416667 -0.750000    0.00057870  80 t-inv F
  0.083333 -0.083333 -0.416667    0.00057870  81 t-inv F
 -0.416667 -0.083333  0.083333    0.00057870  81 t-inv F
 -0.333333 -0.500000 -0.416667    0.00057870  81 t-inv F
  0.166667  0.083333 -0.333333    0.00057870  81 t-inv F
 -0.333333  0.083333  0.166667    0.00057870  81 t-inv F
 -0.416667 -0.500000 -0.333333    0.00057870  81 t-inv F
  0.083333  0.500000  0.166667    0.00057870  81 t-inv F
  0.083333 -0.166667 -0.416667    0.00057870  82 t-inv F
 -0.416667 -0.166667  0.083333    0.00057870  82 t-inv F
 -0.250000 -0.500000 -0.416667    0.00057870  82 t-inv F
  0.250000  0.166667 -0.250000    0.00057870  82 t-inv F
 -0.250000  0.166667  0.250000    0.00057870  82 t-inv F
 -0.416667 -0.500000 -0.250000    0.00057870  82 t-inv F
  0.083333  0.500000  0.250000    0.00057870  82 t-inv F
  0.083333 -0.250000 -0.416667    0.00057870  83 t-inv F
 -0.416667 -0.250000  0.083333    0.00057870  83 t-inv F
 -0.166667 -0.500000 -0.416667    0.00057870  83 t-inv F
  0.333333  0.250000 -0.166667    0.00057870  83 t-inv F
 -0.166667  0.250000  0.333333    0.00057870  83 t-inv F
 -0.416667 -0.500000 -0.166667    0.00057870  83 t-inv F
  0.083333  0.500000  0.333333    0.00057870  83 t-inv F
  0.083333 -0.333333 -0.416667    0.00057870  84 t-inv F
 -0.416667 -0.333333  0.083333    0.00057870  84 t-inv F
 -0.083333 -0.500000 -0.416667    0.00057870  84 t-inv F
  0.416667  0.333333 -0.083333    0.00057870  84 t-inv F
 -0.083333  0.333333  0.416667    0.00057870  84 t-inv F
 -0.416667 -0.500000 -0.083333    0.00057870  84 t-inv F
  0.083333  0.500000  0.416667    0.00057870  84 t-inv F
  0.083333  0.500000 -0.416667    0.00057870  85 t-inv F
  0.083333 -0.083333  0.500000    0.00057870  86 t-inv F
  0.500000 -0.083333  0.083333    0.00057870  86 t-inv F
  0.583333  0.416667  0.500000    0.00057870  86 t-inv F
  0.166667  0.083333  0.583333    0.00057870  86 t-inv F
  0.583333  0.083333  0.166667    0.00057870  86 t-inv F
  0.500000  0.416667  0.583333    0.00057870  86 t-inv F
  0.083333 -0.416667  0.166667    0.00057870  86 t-inv F
  0.083333 -0.166667  0.500000    0.00057870  87 t-inv F
  0.500000 -0.166667  0.083333    0.00057870  87 t-inv F
  0.666667  0.416667  0.500000    0.00057870  87 t-inv F
  0.250000  0.166667  0.666667    0.00057870  87 t-inv F
  0.666667  0.166667  0.250000    0.00057870  87 t-inv F
  0.500000  0.416667  0.666667    0.00057870  87 t-inv F
  0.083333 -0.416667  0.250000    0.00057870  87 t-inv F
  0.083333 -0.250000  0.500000    0.00057870  88 t-inv F
  0.500000 -0.250000  0.083333    0.00057870  88 t-inv F
  0.750000  0.416667  0.500000    0.00057870  88 t-inv F
  0.333333  0.250000  0.750000    0.00057870  88 t-inv F
  0.750000  0.250000  0.333333    0.00057870  88 t-inv F
  0.500000  0.416667  0.750000    0.00057870  88 t-inv F
  0.083333 -0.416667  0.333333    0.00057870  88 t-inv F
  0.083333 -0.333333  0.500000    0.00057870  89 t-inv F
  0.500000 -0.333333  0.083333    0.00057870  89 t-inv F
  0.833333  0.416667  0.500000    0.00057870  89 t-inv F
  0.416667  0.333333  0.833333    0.00057870  89 t-inv F
  0.833333  0.333333  0.416667    0.00057870  89 t-inv F
  0.500000  0.416667  0.833333    0.00057870  89 t-inv F
  0.083333 -0.416667  0.416667    0.00057870  89 t-inv F
  0.083333 -0.416667  0.500000    0.00057870  90 t-inv F
  0.916667  0.416667  0.500000    0.00057870  90 t-inv F
  0.500000  0.416667  0.916667    0.00057870  90 t-inv F
  0.083333 -0.083333  0.416667    0.00057870  91 t-inv F
  0.416667 -0.083333  0.083333    0.00057870  91 t-inv F
  0.500000  0.333333  0.416667    0.00057870  91 t-inv F
  0.166667  0.083333  0.500000    0.00057870  91 t-inv F
  0.500000  0.083333  0.166667    0.00057870  91 t-inv F
  0.416667  0.333333  0.500000    0.00057870  91 t-inv F
  0.083333 -0.333333  0.166667    0.00057870  91 t-inv F
  0.083333 -0.166667  0.416667    0.00057870  92 t-inv F
  0.416667 -0.166667  0.083333    0.00057870  92 t-inv F
  0.583333  0.333333  0.416667    0.00057870  92 t-inv F
  0.250000  0.166667  0.583333    0.00057870  92 t-inv F
  0.583333  0.166667  0.250000    0.00057870  92 t-inv F
  0.416667  0.333333  0.583333    0.00057870  92 t-inv F
  0.083333 -0.333333  0.250000    0.00057870  92 t-inv F
  0.083333 -0.250000  0.416667    0.00057870  93 t-inv F
  0.416667 -0.250000  0.083333    0.00057870  93 t-inv F
  0.666667  0.333333  0.416667    0.00057870  93 t-inv F
  0.333333  0.250000  0.666667    0.00057870  93 t-inv F
  0.666667  0.250000  0.333333    0.00057870  93 t-inv F
  0.416667  0.333333  0.666667    0.00057870  93 t-inv F
  0.083333 -0.333333  0.333333    0.00057870  93 t-inv F
  0.083333 -0.333333  0.416667    0.00057870  94 t-inv F
  0.750000  0.333333  0.416667    0.00057870  94 t-inv F
  0.416667  0.333333  0.750000    0.00057870  94 t-inv F
  0.083333 -0.083333  0.333333    0.00057870  95 t-inv F
  0.333333 -0.083333  0.083333    0.00057870  95 t-inv F
  0.416667  0.250000  0.333333    0.00057870  95 t-inv F
  0.166667  0.083333  0.416667    0.00057870  95 t-inv F
  0.416667  0.083333  0.166667    0.00057870  95 t-inv F
  0.333333  0.250000  0.416667    0.00057870  95 t-inv F
  0.083333 -0.250000  0.166667    0.00057870  95 t-inv F
  0.083333 -0.166667  0.333333    0.00057870  96 t-inv F
  0.333333 -0.166667  0.083333    0.00057870  96 t-inv F
  0.500000  0.250000  0.333333    0.00057870  96 t-inv F
  0.250000  0.166667  0.500000    0.00057870  96 t-inv F
  0.500000  0.166667  0.250000    0.00057870  96 t-inv F
  0.333333  0.250000  0.500000    0.00057870  96 t-inv F
  0.083333 -0.250000  0.250000    0.00057870  96 t-inv F
  0.083333 -0.250000  0.333333    0.00057870  97 t-inv F
  0.583333  0.250000  0.333333    0.00057870  97 t-inv F
  0.333333  0.250000  0.583333    0.00057870  97 t-inv F
  0.083333 -0.083333  0.250000    0.00057870  98 t-inv F
  0.250000 -0.083333  0.083333    0.00057870  98 t-inv F
  0.333333  0.166667  0.250000    0.00057870  98 t-inv F
  0.166667  0.083333  0.333333    0.00057870  98 t-inv F
  0.333333  0.083333  0.166667    0.00057870  98 t-inv F
  0.250000  0.166667  0.333333    0.00057870  98 t-inv F
  0.083333 -0.166667  0.166667    0.00057870  98 t-inv F
  0.083333 -0.166667  0.250000    0.00057870  99 t-inv F
  0.416667  0.166667  0.250000    0.00057870  99 t-inv F
  0.250000  0.166667  0.416667    0.00057870  99 t-inv F
  0.083333 -0.083333  0.166667    0.00057870 100 t-inv F
  0.250000  0.083333  0.166667    0.00057870 100 t-inv F
  0.166667  0.083333  0.250000    0.00057870 100 t-inv F
  0.166667 -0.083333  0.166667    0.00057870 102 t-inv F
  0.250000  0.083333  0.250000    0.00057870 102 t-inv F
  0.166667  0.000000  0.250000    0.00057870 102 t-inv F
  0.166667 -0.166667  0.166667    0.00057870 103 t-inv F
  0.333333  0.166667  0.333333    0.00057870 103 t-inv F
  0.166667  0.000000  0.333333    0.00057870 103 t-inv F
  0.166667 -0.250000  0.166667    0.00057870 104 t-inv F
  0.416667  0.250000  0.416667    0.00057870 104 t-inv F
  0.166667 -0.000000  0.416667    0.00057870 104 t-inv F
  0.166667 -0.333333  0.166667    0.00057870 105 t-inv F
  0.500000  0.333333  0.500000    0.00057870 105 t-inv F
  0.166667  0.000000  0.500000    0.00057870 105 t-inv F
  0.166667  0.583333  0.166667    0.00057870 106 t-inv F
 -0.416667 -0.583333 -0.416667    0.00057870 106 t-inv F
  0.166667  0.000000 -0.416667    0.00057870 106 t-inv F
  0.166667  0.500000  0.166667    0.00057870 107 t-inv F
 -0.333333 -0.500000 -0.333333    0.00057870 107 t-inv F
  0.166667 -0.000000 -0.333333    0.00057870 107 t-inv F
  0.166667  0.416667  0.166667    0.00057870 108 t-inv F
 -0.250000 -0.416667 -0.250000    0.00057870 108 t-inv F
  0.166667 -0.000000 -0.250000    0.00057870 108 t-inv F
  0.166667  0.333333  0.166667    0.00057870 109 t-inv F
 -0.166667 -0.333333 -0.166667    0.00057870 109 t-inv F
  0.166667  0.000000 -0.166667    0.00057870 109 t-inv F
  0.166667 -0.333333 -0.166667    0.00057870 110 t-inv F
 -0.166667 -0.333333  0.166667    0.00057870 110 t-inv F
  0.166667  0.333333  0.500000    0.00057870 110 t-inv F
  0.166667  0.583333 -0.166667    0.00057870 111 t-inv F
 -0.166667  0.583333  0.166667    0.00057870 111 t-inv F
 -0.750000 -0.333333 -0.166667    0.00057870 111 t-inv F
 -0.416667 -0.583333 -0.750000    0.00057870 111 t-inv F
 -0.750000 -0.583333 -0.416667    0.00057870 111 t-inv F
 -0.166667 -0.333333 -0.750000    0.00057870 111 t-inv F
  0.166667  0.333333 -0.416667    0.00057870 111 t-inv F
  0.166667  0.500000 -0.166667    0.00057870 112 t-inv F
 -0.166667  0.500000  0.166667    0.00057870 112 t-inv F
 -0.666667 -0.333333 -0.166667    0.00057870 112 t-inv F
 -0.333333 -0.500000 -0.666667    0.00057870 112 t-inv F
 -0.666667 -0.500000 -0.333333    0.00057870 112 t-inv F
 -0.166667 -0.333333 -0.666667    0.00057870 112 t-inv F
  0.166667  0.333333 -0.333333    0.00057870 112 t-inv F
  0.166667 -0.083333 -0.250000    0.00057870 113 t-inv F
 -0.250000 -0.083333  0.166667    0.00057870 113 t-inv F
 -0.166667 -0.416667 -0.250000    0.00057870 113 t-inv F
  0.250000  0.083333 -0.166667    0.00057870 113 t-inv F
 -0.166667  0.083333  0.250000    0.00057870 113 t-inv F
 -0.250000 -0.416667 -0.166667    0.00057870 113 t-inv F
  0.166667  0.416667  0.250000    0.00057870 113 t-inv F
  0.166667  0.583333 -0.250000    0.00057870 114 t-inv F
 -0.250000  0.583333  0.166667    0.00057870 114 t-inv F
 -0.833333 -0.583333 -0.416667    0.00057870 114 t-inv F
  0.166667  0.500000 -0.250000    0.00057870 115 t-inv F
 -0.250000  0.500000  0.166667    0.00057870 115 t-inv F
 -0.750000 -0.416667 -0.250000    0.00057870 115 t-inv F
 -0.333333 -0.500000 -0.750000    0.00057870 115 t-inv F
 -0.750000 -0.500000 -0.333333    0.00057870 115 t-inv F
 -0.250000 -0.416667 -0.750000    0.00057870 115 t-inv F
  0.166667  0.416667 -0.333333    0.00057870 115 t-inv F
  0.166667  0.416667 -0.250000    0.00057870 116 t-inv F
 -0.666667 -0.416667 -0.250000    0.00057870 116 t-inv F
 -0.250000 -0.416667 -0.666667    0.00057870 116 t-inv F
  0.166667 -0.083333 -0.333333    0.00057870 117 t-inv F
 -0.333333 -0.083333  0.166667    0.00057870 117 t-inv F
 -0.250000 -0.500000 -0.333333    0.00057870 117 t-inv F
  0.250000  0.083333 -0.250000    0.00057870 117 t-inv F
 -0.250000  0.083333  0.250000    0.00057870 117 t-inv F
 -0.333333 -0.500000 -0.250000    0.00057870 117 t-inv F
  0.166667  0.500000  0.250000    0.00057870 117 t-inv F
  0.166667 -0.166667 -0.333333    0.00057870 118 t-inv F
 -0.333333 -0.166667  0.166667    0.00057870 118 t-inv F
 -0.166667 -0.500000 -0.333333    0.00057870 118 t-inv F
  0.333333  0.166667 -0.166667    0.00057870 118 t-inv F
 -0.166667  0.166667  0.333333    0.00057870 118 t-inv F
 -0.333333 -0.500000 -0.166667    0.00057870 118 t-inv F
  0.166667  0.500000  0.333333    0.00057870 118 t-inv F
  0.166667  0.500000 -0.333333    0.00057870 119 t-inv F
  0.166667 -0.083333  0.583333    0.00057870 120 t-inv F
  0.583333 -0.083333  0.166667    0.00057870 120 t-inv F
  0.666667  0.416667  0.583333    0.00057870 120 t-inv F
  0.250000  0.083333  0.666667    0.00057870 120 t-inv F
  0.666667  0.083333  0.250000    0.00057870 120 t-inv F
  0.583333  0.416667  0.666667    0.00057870 120 t-inv F
  0.166667 -0.416667  0.250000    0.00057870 120 t-inv F
  0.166667 -0.166667  0.583333    0.00057870 121 t-inv F
  0.583333 -0.166667  0.166667    0.00057870 121 t-inv F
  0.750000  0.416667  0.583333    0.00057870 121 t-inv F
  0.333333  0.166667  0.750000    0.00057870 121 t-inv F
  0.750000  0.166667  0.333333    0.00057870 121 t-inv F
  0.583333  0.416667  0.750000    0.00057870 121 t-inv F
  0.166667 -0.416667  0.333333    0.00057870 121 t-inv F
  0.166667 -0.250000  0.583333    0.00057870 122 t-inv F
  0.583333 -0.250000  0.166667    0.00057870 122 t-inv F
  0.833333  0.416667  0.583333    0.00057870 122 t-inv F
  0.416667  0.250000  0.833333    0.00057870 122 t-inv F
  0.833333  0.250000  0.416667    0.00057870 122 t-inv F
  0.583333  0.416667  0.833333    0.00057870 122 t-inv F
  0.166667 -0.416667  0.416667    0.00057870 122 t-inv F
  0.166667 -0.083333  0.500000    0.00057870 123 t-inv F
  0.500000 -0.083333  0.166667    0.00057870 123 t-inv F
  0.583333  0.333333  0.500000    0.00057870 123 t-inv F
  0.250000  0.083333  0.583333    0.00057870 123 t-inv F
  0.583333  0.083333  0.250000    0.00057870 123 t-inv F
  0.500000  0.333333  0.583333    0.00057870 123 t-inv F
  0.166667 -0.333333  0.250000    0.00057870 123 t-inv F
  0.166667 -0.166667  0.500000    0.00057870 124 t-inv F
  0.500000 -0.166667  0.166667    0.00057870 124 t-inv F
  0.666667  0.333333  0.500000    0.00057870 124 t-inv F
  0.333333  0.166667  0.666667    0.00057870 124 t-inv F
  0.666667  0.166667  0.333333    0.00057870 124 t-inv F
  0.500000  0.333333  0.666667    0.00057870 124 t-inv F
  0.166667 -0.333333  0.333333    0.00057870 124 t-inv F
  0.166667 -0.250000  0.500000    0.00057870 125 t-inv F
  0.500000 -0.250000  0.166667    0.00057870 125 t-inv F
  0.750000  0.333333  0.500000    0.00057870 125 t-inv F
  0.416667  0.250000  0.750000    0.00057870 125 t-inv F
  0.750000  0.250000  0.416667    0.00057870 125 t-inv F
  0.500000  0.333333  0.750000    0.00057870 125 t-inv F
  0.166667 -0.333333  0.416667    0.00057870 125 t-inv F
  0.166667 -0.333333  0.500000    0.00057870 126 t-inv F
  0.833333  0.333333  0.500000    0.00057870 126 t-inv F
  0.500000  0.333333  0.833333    0.00057870 126 t-inv F
  0.166667 -0.083333  0.416667    0.00057870 127 t-inv F
  0.416667 -0.083333  0.166667    0.00057870 127 t-inv F
  0.500000  0.250000  0.416667    0.00057870 127 t-inv F
  0.250000  0.083333  0.500000    0.00057870 127 t-inv F
  0.500000  0.083333  0.250000    0.00057870 127 t-inv F
  0.416667  0.250000  0.500000    0.00057870 127 t-inv F
  0.166667 -0.250000  0.250000    0.00057870 127 t-inv F
  0.166667 -0.166667  0.416667    0.00057870 128 t-inv F
  0.416667 -0.166667  0.166667    0.00057870 128 t-inv F
  0.583333  0.250000  0.416667    0.00057870 128 t-inv F
  0.333333  0.166667  0.583333    0.00057870 128 t-inv F
  0.583333  0.166667  0.333333    0.00057870 128 t-inv F
  0.416667  0.250000  0.583333    0.00057870 128 t-inv F
  0.166667 -0.250000  0.333333    0.00057870 128 t-inv F
  0.166667 -0.250000  0.416667    0.00057870 129 t-inv F
  0.666667  0.250000  0.416667    0.00057870 129 t-inv F
  0.416667  0.250000  0.666667    0.00057870 129 t-inv F
  0.166667 -0.083333  0.333333    0.00057870 130 t-inv F
  0.333333 -0.083333  0.166667    0.00057870 130 t-inv F
  0.416667  0.166667  0.333333    0.00057870 130 t-inv F
  0.250000  0.083333  0.416667    0.00057870 130 t-inv F
  0.416667  0.083333  0.250000    0.00057870 130 t-inv F
  0.333333  0.166667  0.416667    0.00057870 130 t-inv F
  0.166667 -0.166667  0.250000    0.00057870 130 t-inv F
  0.166667 -0.166667  0.333333    0.00057870 131 t-inv F
  0.500000  0.166667  0.333333    0.00057870 131 t-inv F
  0.333333  0.166667  0.500000    0.00057870 131 t-inv F
  0.166667 -0.083333  0.250000    0.00057870 132 t-inv F
  0.333333  0.083333  0.250000    0.00057870 132 t-inv F
  0.250000  0.083333  0.333333    0.00057870 132 t-inv F
  0.250000 -0.083333  0.250000    0.00057870 134 t-inv F
  0.333333  0.083333  0.333333    0.00057870 134 t-inv F
  0.250000  0.000000  0.333333    0.00057870 134 t-inv F
  0.250000 -0.166667  0.250000    0.00057870 135 t-inv F
  0.416667  0.166667  0.416667    0.00057870 135 t-inv F
  0.250000  0.000000  0.416667    0.00057870 135 t-inv F
  0.250000 -0.250000  0.250000    0.00057870 136 t-inv F
  0.500000  0.250000  0.500000    0.00057870 136 t-inv F
  0.250000  0.000000  0.500000    0.00057870 136 t-inv F
  0.250000  0.666667  0.250000    0.00057870 137 t-inv F
 -0.416667 -0.666667 -0.416667    0.00057870 137 t-inv F
  0.250000  0.000000 -0.416667    0.00057870 137 t-inv F
  0.250000  0.583333  0.250000    0.00057870 138 t-inv F
 -0.333333 -0.583333 -0.333333    0.00057870 138 t-inv F
  0.250000 -0.000000 -0.333333    0.00057870 138 t-inv F
  0.250000  0.500000  0.250000    0.00057870 139 t-inv F
 -0.250000 -0.500000 -0.250000    0.00057870 139 t-inv F
  0.250000 -0.000000 -0.250000    0.00057870 139 t-inv F
  0.250000  0.500000 -0.250000    0.00057870 140 t-inv F
  0.250000 -0.083333  0.666667    0.00057870 141 t-inv F
  0.666667 -0.083333  0.250000    0.00057870 141 t-inv F
  0.750000  0.416667  0.666667    0.00057870 141 t-inv F
  0.333333  0.083333  0.750000    0.00057870 141 t-inv F
  0.750000  0.083333  0.333333    0.00057870 141 t-inv F
  0.666667  0.416667  0.750000    0.00057870 141 t-inv F
  0.250000 -0.416667  0.333333    0.00057870 141 t-inv F
  0.250000 -0.083333  0.583333    0.00057870 142 t-inv F
  0.583333 -0.083333  0.250000    0.00057870 142 t-inv F
  0.666667  0.333333  0.583333    0.00057870 142 t-inv F
  0.333333  0.083333  0.666667    0.00057870 142 t-inv F
  0.666667  0.083333  0.333333    0.00057870 142 t-inv F
  0.583333  0.333333  0.666667    0.00057870 142 t-inv F
  0.250000 -0.333333  0.333333    0.00057870 142 t-inv F
  0.250000 -0.166667  0.583333    0.00057870 143 t-inv F
  0.583333 -0.166667  0.250000    0.00057870 143 t-inv F
  0.750000  0.333333  0.583333    0.00057870 143 t-inv F
  0.416667  0.166667  0.750000    0.00057870 143 t-inv F
  0.750000  0.166667  0.416667    0.00057870 143 t-inv F
  0.583333  0.333333  0.750000    0.00057870 143 t-inv F
  0.250000 -0.333333  0.416667    0.00057870 143 t-inv F
  0.250000 -0.083333  0.500000    0.00057870 144 t-inv F
  0.500000 -0.083333  0.250000    0.00057870 144 t-inv F
  0.583333  0.250000  0.500000    0.00057870 144 t-inv F
  0.333333  0.083333  0.583333    0.00057870 144 t-inv F
  0.583333  0.083333  0.333333    0.00057870 144 t-inv F
  0.500000  0.250000  0.583333    0.00057870 144 t-inv F
  0.250000 -0.250000  0.333333    0.00057870 144 t-inv F
  0.250000 -0.166667  0.500000    0.00057870 145 t-inv F
  0.500000 -0.166667  0.250000    0.00057870 145 t-inv F
  0.666667  0.250000  0.500000    0.00057870 145 t-inv F
  0.416667  0.166667  0.666667    0.00057870 145 t-inv F
  0.666667  0.166667  0.416667    0.00057870 145 t-inv F
  0.500000  0.250000  0.666667    0.00057870 145 t-inv F
  0.250000 -0.250000  0.416667    0.00057870 145 t-inv F
  0.250000 -0.250000  0.500000    0.00057870 146 t-inv F
  0.750000  0.250000  0.500000    0.00057870 146 t-inv F
  0.500000  0.250000  0.750000    0.00057870 146 t-inv F
  0.250000 -0.083333  0.416667    0.00057870 147 t-inv F
  0.416667 -0.083333  0.250000    0.00057870 147 t-inv F
  0.500000  0.166667  0.416667    0.00057870 147 t-inv F
  0.333333  0.083333  0.500000    0.00057870 147 t-inv F
  0.500000  0.083333  0.333333    0.00057870 147 t-inv F
  0.416667  0.166667  0.500000    0.00057870 147 t-inv F
  0.250000 -0.166667  0.333333    0.00057870 147 t-inv F
  0.250000 -0.166667  0.416667    0.00057870 148 t-inv F
  0.583333  0.166667  0.416667    0.00057870 148 t-inv F
  0.416667  0.166667  0.583333    0.00057870 148 t-inv F
  0.250000 -0.083333  0.333333    0.00057870 149 t-inv F
  0.416667  0.083333  0.333333    0.00057870 149 t-inv F
  0.333333  0.083333  0.416667    0.00057870 149 t-inv F
  0.333333 -0.083333  0.333333    0.00057870 151 t-inv F
  0.416667  0.083333  0.416667    0.00057870 151 t-inv F
[...]
      5       0.0002      0.00000
      6       0.0002      0.00000
      7       0.0002      0.00000
      8       0.0001      0.00000
      9       0.0001      0.00000
     10       0.0000      0.00000
     11       0.0001      0.00000
     12       0.0001      0.00000
     13       0.0003      0.00000
     14       0.0001      0.00000
     15      -0.0000      0.00000
     16       0.0000      0.00000

 k-point 465 :       0.7500    0.2500    0.5000
  band No.  band energies     occupation 
      1      -0.0001      0.00000
      2      -0.0001      0.00000
      3      -0.0001      0.00000
      4       0.0002      0.00000
      5       0.0002      0.00000
      6       0.0002      0.00000
      7       0.0002      0.00000
      8       0.0001      0.00000
      9       0.0001      0.00000
     10       0.0001      0.00000
     11       0.0000      0.00000
     12       0.0001      0.00000
     13       0.0002      0.00000
     14       0.0001      0.00000
     15       0.0001      0.00000
     16       0.0001      0.00000

 k-point 466 :      -0.1667    0.2500   -0.5000
  band No.  band energies     occupation 
      1      -0.0001      0.00000
      2      -0.0001      0.00000
      3      -0.0001      0.00000
      4       0.0002      0.00000
      5       0.0002      0.00000
      6       0.0002      0.00000
      7       0.0002      0.00000
      8       0.0000      0.00000
      9       0.0001      0.00000
     10       0.0001      0.00000
     11       0.0000      0.00000
     12       0.0001      0.00000
     13       0.0002      0.00000
     14       0.0001      0.00000
     15       0.0001      0.00000
     16       0.0001      0.00000

 k-point 467 :      -0.0833    0.2500   -0.5000
  band No.  band energies     occupation 
      1      -0.0001      0.00000
      2      -0.0001      0.00000
      3      -0.0001      0.00000
      4       0.0002      0.00000
      5       0.0002      0.00000
      6       0.0002      0.00000
      7       0.0002      0.00000
      8       0.0000      0.00000
      9       0.0001      0.00000
     10       0.0001      0.00000
     11       0.0001      0.00000
     12       0.0001      0.00000
     13       0.0002      0.00000
     14       0.0001      0.00000
     15       0.0001      0.00000
     16       0.0001      0.00000

 k-point 468 :      -0.0000    0.3333    0.5000
  band No.  band energies     occupation 
      1      -0.0001      0.00000
      2      -0.0001      0.00000
      3      -0.0001      0.00000
      4       0.0002      0.00000
      5       0.0002      0.00000
      6       0.0002      0.00000
      7       0.0002      0.00000
      8       0.0000      0.00000
      9       0.0001      0.00000
     10       0.0001      0.00000
     11       0.0001      0.00000
     12       0.0002      0.00000
     13       0.0001      0.00000
     14       0.0001      0.00000
     15       0.0002      0.00000
     16       0.0001      0.00000

 k-point 469 :       0.0833    0.3333    0.5000
  band No.  band energies     occupation 
      1      -0.0001      0.00000
      2      -0.0001      0.00000
      3      -0.0001      0.00000
      4       0.0002      0.00000
      5       0.0002      0.00000
      6       0.0002      0.00000
      7       0.0002      0.00000
      8       0.0001      0.00000
      9       0.0001      0.00000
     10       0.0001      0.00000
     11       0.0001      0.00000
     12       0.0001      0.00000
     13       0.0002      0.00000
     14       0.0001      0.00000
     15       0.0001      0.00000
     16       0.0000      0.00000

 k-point 470 :       0.1667    0.3333    0.5000
  band No.  band energies     occupation 
      1      -0.0001      0.00000
      2      -0.0001      0.00000
      3      -0.0001      0.00000
      4       0.0002      0.00000
      5       0.0002      0.00000
      6       0.0002      0.00000
      7       0.0002      0.00000
      8       0.0001      0.00000
      9       0.0001      0.00000
     10       0.0000      0.00000
     11       0.0001      0.00000
     12       0.0001      0.00000
     13       0.0003      0.00000
     14       0.0001      0.00000
     15       0.0001      0.00000
     16       0.0000      0.00000

 k-point 471 :       0.8333    0.3333    0.5000
  band No.  band energies     occupation 
      1      -0.0001      0.00000
      2      -0.0001      0.00000
      3      -0.0001      0.00000
      4       0.0002      0.00000
      5       0.0002      0.00000
      6       0.0002      0.00000
      7       0.0002      0.00000
      8       0.0000      0.00000
      9       0.0001      0.00000
     10       0.0001      0.00000
     11       0.0000      0.00000
     12       0.0002      0.00000
     13       0.0001      0.00000
     14       0.0002      0.00000
     15       0.0001      0.00000
     16       0.0001      0.00000

 k-point 472 :      -0.0833    0.3333   -0.5000
  band No.  band energies     occupation 
      1      -0.0001      0.00000
      2      -0.0001      0.00000
      3      -0.0001      0.00000
      4       0.0002      0.00000
      5       0.0002      0.00000
      6       0.0002      0.00000
      7       0.0002      0.00000
      8       0.0000      0.00000
      9       0.0001      0.00000
     10       0.0001      0.00000
     11       0.0001      0.00000
     12       0.0001      0.00000
     13       0.0002      0.00000
     14       0.0001      0.00000
     15       0.0001      0.00000
     16       0.0001      0.00000

 k-point 473 :      -0.0000    0.4167    0.5000
  band No.  band energies     occupation 
      1      -0.0001      0.00000
      2      -0.0001      0.00000
      3      -0.0001      0.00000
      4       0.0002      0.00000
      5       0.0002      0.00000
      6       0.0002      0.00000
      7       0.0002      0.00000
      8       0.0000      0.00000
      9       0.0000      0.00000
     10       0.0002      0.00000
     11       0.0001      0.00000
     12       0.0001      0.00000
     13       0.0001      0.00000
     14       0.0001      0.00000
     15       0.0001      0.00000
     16       0.0001      0.00000

 k-point 474 :       0.0833    0.4167    0.5000
  band No.  band energies     occupation 
      1      -0.0001      0.00000
      2      -0.0001      0.00000
      3      -0.0001      0.00000
      4       0.0002      0.00000
      5       0.0002      0.00000
      6       0.0002      0.00000
      7       0.0002      0.00000
      8       0.0000      0.00000
      9       0.0001      0.00000
     10       0.0001      0.00000
     11       0.0001      0.00000
     12       0.0001      0.00000
     13       0.0002      0.00000
     14       0.0001      0.00000
     15       0.0001      0.00000
     16       0.0001      0.00000

 k-point 475 :       0.9167    0.4167    0.5000
  band No.  band energies     occupation 
      1      -0.0001      0.00000
      2      -0.0001      0.00000
      3      -0.0001      0.00000
      4       0.0002      0.00000
      5       0.0002      0.00000
      6       0.0002      0.00000
      7       0.0002      0.00000
      8       0.0000      0.00000
      9       0.0001      0.00000
     10       0.0002      0.00000
     11       0.0001      0.00000
     12       0.0002      0.00000
     13       0.0001      0.00000
     14       0.0001      0.00000
     15       0.0001      0.00000
     16       0.0001      0.00000

 k-point 476 :      -0.0000   -0.5000   -0.5000
  band No.  band energies     occupation 
      1      -0.0001      0.00000
      2      -0.0001      0.00000
      3      -0.0001      0.00000
      4       0.0002      0.00000
      5       0.0002      0.00000
      6       0.0002      0.00000
      7       0.0002      0.00000
      8       0.0000      0.00000
      9       0.0000      0.00000
     10       0.0002      0.00000
     11       0.0001      0.00000
     12       0.0001      0.00000
     13       0.0001      0.00000
     14       0.0001      0.00000
     15       0.0001      0.00000
     16       0.0001      0.00000


------------------------ aborting loop because EDIFF is reached ----------------------------------------


    FORLOC:  cpu time    0.0010: real time    0.0011
    FORNL :  cpu time    0.1576: real time    0.1576
    STRESS:  cpu time    1.7956: real time    1.7956
    FORCOR:  cpu time    0.0132: real time    0.0132
    OFIELD:  cpu time    0.0001: real time    0.0001
    FORLOC:  cpu time    0.0010: real time    0.0010
    FORNL :  cpu time    0.1550: real time    0.1550
    STRESS:  cpu time    1.7949: real time    1.7949
    FORCOR:  cpu time    0.0131: real time    0.0131
    OFIELD:  cpu time    0.0001: real time    0.0001
    FORLOC:  cpu time    0.0011: real time    0.0011
    FORNL :  cpu time    0.1549: real time    0.1549
    STRESS:  cpu time    1.7958: real time    1.7958
    FORCOR:  cpu time    0.0130: real time    0.0130
    OFIELD:  cpu time    0.0001: real time    0.0001
    FORLOC:  cpu time    0.0011: real time    0.0011
    FORNL :  cpu time    0.1549: real time    0.1549
    STRESS:  cpu time    1.7952: real time    1.7952
    FORCOR:  cpu time    0.0130: real time    0.0130
    OFIELD:  cpu time    0.0001: real time    0.0001

 INTERNAL STRAIN TENSOR  FOR ION    2  DIRECTION 2   (eV/Angst):
 -----------------------------------------------------------------------------
     0.00114  0.00076  0.00000
     0.00076  0.00111  0.00000
     0.00000  0.00000 -0.00010


 POSITION                   FORCE-CONSTANT FOR ION    2 DIRECTION 2 (eV/Angst/Angst)
 -----------------------------------------------------------------------------------
      0.00000      0.00000      0.00000         0.000014      1.581187      0.000000
     -2.79406      2.79406      2.79406        -0.000014     -1.581187     -0.000000
 -----------------------------------------------------------------------------------
    total drift:                               -0.000000      0.000000      0.000000


 BORN EFFECTIVE CHARGE FOR ION    2 DIRECTION 2 :  -0.000  -1.089   0.000
                   rigid augmentation           :  -0.000   0.943  -0.000
                   ionic contribution           :  -0.000   7.000  -0.000
                   Berry contribution           :  -0.000  -9.032   0.000


--------------------------------------------------------------------------------------------------------


  LATTYP: Found a face centered cubic cell.
 ALAT       =     5.5881260062
  
  Lattice vectors:
  
 A1 = (  -2.7940630031,   0.0000000000,   2.7940630031)
 A2 = (   0.0000000000,   2.7940630031,   2.7940630031)
 A3 = (  -2.7940630031,   2.7940630031,   0.0000000000)


Analysis of symmetry for initial positions (statically):
=====================================================================
 Subroutine PRICEL returns:
 Original cell was already a primitive cell.
 

 Routine SETGRP: Setting up the symmetry group for a 
 face centered cubic supercell.


 Subroutine GETGRP returns: Found  8 space group operations
 (whereof  8 operations were pure point group operations)
 out of a pool of 48 trial point group operations.


The static configuration has the point symmetry C_4v.


Analysis of symmetry for dynamics (positions and initial velocities):
=====================================================================
 Subroutine PRICEL returns:
 Original cell was already a primitive cell.
 

 Routine SETGRP: Setting up the symmetry group for a 
 face centered cubic supercell.


 Subroutine GETGRP returns: Found  8 space group operations
 (whereof  8 operations were pure point group operations)
 out of a pool of 48 trial point group operations.


The dynamic configuration has the point symmetry C_4v.


 Subroutine INISYM returns: Found  8 space group operations
 (whereof  8 operations are pure point group operations),
 and found     1 'primitive' translations



--------------------------------------------------------------------------------------------------------




 MACROSCOPIC STATIC DIELECTRIC TENSOR (including local field effects in DFT)
 ------------------------------------------------------
           2.524899    -0.000000     0.000000
          -0.000000     2.524889    -0.000000
           0.000000    -0.000000     2.524889
 ------------------------------------------------------


 PIEZOELECTRIC TENSOR  for field in x, y, z        (e  Angst)
          XX          YY          ZZ          XY          YZ          ZX
  --------------------------------------------------------------------------------
  x     0.00002     0.00006     0.00006     0.00000    -0.00000    -0.00000
  y    -0.00008     0.00000    -0.00005     0.00006     0.00000    -0.00000
  z    -0.00001    -0.00003    -0.00000    -0.00000     0.00000    -0.00003

 PIEZOELECTRIC TENSOR  for field in x, y, z        (C/m^2)
          XX          YY          ZZ          XY          YZ          ZX
  --------------------------------------------------------------------------------
  x     0.00001     0.00002     0.00002    -0.00000    -0.00000     0.00000
  y     0.00000    -0.00000    -0.00000     0.00001     0.00000    -0.00000
  z     0.00000     0.00000     0.00000    -0.00000    -0.00000     0.00001
 
 BORN EFFECTIVE CHARGES (in e, cummulative output)
 -------------------------------------------------
 ion    1
    1     1.08918     0.00000    -0.00000
    2     0.00003     1.08918     0.00000
    3    -0.00004    -0.00000     1.08918
 ion    2
    1    -1.08918    -0.00000     0.00000
    2    -0.00003    -1.08918    -0.00000
    3     0.00004     0.00000    -1.08918

 INTERNAL STRAIN TENSOR FOR ION    1 for displacements in x,y,z  (eV/Angst):
          X           Y           Z          XY          YZ          ZX
  --------------------------------------------------------------------------------
  x     0.00171    -0.00084    -0.00084     0.00000     0.00000    -0.00000
  y    -0.00000     0.00000     0.00000    -0.00152    -0.00000     0.00000
  z     0.00000     0.00000     0.00000     0.00000     0.00000    -0.00151

 INTERNAL STRAIN TENSOR FOR ION    2 for displacements in x,y,z  (eV/Angst):
          X           Y           Z          XY          YZ          ZX
  --------------------------------------------------------------------------------
  x    -0.00202     0.00003     0.00003     0.00000    -0.00000    -0.00000
  y     0.00000     0.00000     0.00000     0.00076     0.00000    -0.00000
  z     0.00000     0.00000     0.00000    -0.00000    -0.00000     0.00076


--------------------------------------------------------------------------------------------------------


 
 SECOND DERIVATIVES (NOT SYMMETRIZED)
 ------------------------------------
               1X          1Y          1Z          2X          2Y          2Z 
  1X    -1.595702    0.000000   -0.000000    1.595702   -0.000000    0.000000
  1Y     0.000000   -1.595743    0.000000   -0.000000    1.595743   -0.000000
  1Z    -0.000000    0.000000   -1.595743    0.000000   -0.000000    1.595743
  2X     1.581179   -0.000000    0.000000   -1.581179    0.000000   -0.000000
  2Y    -0.000000    1.581187   -0.000000    0.000000   -1.581187    0.000000
  2Z     0.000000   -0.000000    1.581187   -0.000000    0.000000   -1.581187
 
 
 Eigenvectors and eigenvalues of the dynamical matrix
 ----------------------------------------------------
 
 
   1 f  =    5.278652 THz    33.166746 2PiTHz  176.076859 cm-1    21.830756 meV
             X         Y         Z           dx          dy          dz
      0.000000  0.000000  0.000000    -0.000000   -0.780262   -0.000000  
     -2.794063  2.794063  2.794063     0.000000    0.625453   -0.000000  
 
   2 f  =    5.278652 THz    33.166746 2PiTHz  176.076859 cm-1    21.830756 meV
             X         Y         Z           dx          dy          dz
      0.000000  0.000000  0.000000     0.000000   -0.000000    0.780262  
     -2.794063  2.794063  2.794063    -0.000000   -0.000000   -0.625453  
 
   3 f  =    5.278604 THz    33.166449 2PiTHz  176.075282 cm-1    21.830561 meV
             X         Y         Z           dx          dy          dz
      0.000000  0.000000  0.000000     0.780259   -0.000000   -0.000000  
     -2.794063  2.794063  2.794063    -0.625457    0.000000    0.000000  
 
   4 f/i=    0.011777 THz     0.073994 2PiTHz    0.392823 cm-1     0.048704 meV
             X         Y         Z           dx          dy          dz
      0.000000  0.000000  0.000000     0.625457   -0.000000   -0.000000  
     -2.794063  2.794063  2.794063     0.780259   -0.000000   -0.000000  
 
   5 f/i=    0.011803 THz     0.074163 2PiTHz    0.393721 cm-1     0.048815 meV
             X         Y         Z           dx          dy          dz
      0.000000  0.000000  0.000000     0.000000    0.603333   -0.164865  
     -2.794063  2.794063  2.794063     0.000000    0.752667   -0.205672  
 
   6 f/i=    0.011803 THz     0.074163 2PiTHz    0.393721 cm-1     0.048815 meV
             X         Y         Z           dx          dy          dz
      0.000000  0.000000  0.000000     0.000000    0.164865    0.603333  
     -2.794063  2.794063  2.794063     0.000000    0.205672    0.752667  
 


--------------------------------------------------------------------------------------------------------




 MACROSCOPIC STATIC DIELECTRIC TENSOR IONIC CONTRIBUTION
 ------------------------------------------------------
           3.097773     0.000076    -0.000118
           0.000076     3.097757    -0.000000
          -0.000118    -0.000000     3.097756
 ------------------------------------------------------


 ELASTIC MODULI IONIC CONTR (kBar)
 Direction    XX          YY          ZZ          XY          YZ          ZX
 --------------------------------------------------------------------------------
 XX          -0.0001      0.0000      0.0000      0.0000     -0.0000      0.0000
 YY           0.0000     -0.0000     -0.0000     -0.0000      0.0000     -0.0000
 ZZ           0.0000     -0.0000     -0.0000     -0.0000      0.0000     -0.0000
 XY           0.0000     -0.0000     -0.0000     -0.0000     -0.0000      0.0000
 YZ          -0.0000      0.0000      0.0000     -0.0000     -0.0000      0.0000
 ZX           0.0000     -0.0000     -0.0000      0.0000      0.0000     -0.0000
 --------------------------------------------------------------------------------


 PIEZOELECTRIC TENSOR IONIC CONTR  for field in x, y, z        (C/m^2)
          XX          YY          ZZ          XY          YZ          ZX
  --------------------------------------------------------------------------------
  x     0.00047    -0.00011    -0.00011    -0.00000     0.00000    -0.00000
  y     0.00000    -0.00000    -0.00000    -0.00029    -0.00000     0.00000
  z    -0.00000     0.00000     0.00000     0.00000     0.00000    -0.00029


--------------------------------------------------------------------------------------------------------


     LOOP+:  cpu time  417.6629: real time  417.9466
    4ORBIT:  cpu time    0.0000: real time    0.0000

 total amount of memory used by VASP MPI-rank0    65682. kBytes
=======================================================================

   base      :      30000. kBytes
   nonl-proj :      25409. kBytes
   fftplans  :       1096. kBytes
   grid      :       2745. kBytes
   one-center:          6. kBytes
   wavefun   :       6426. kBytes
 
  
  
 General timing and accounting informations for this job:
 ========================================================
  
                  Total CPU time used (sec):      419.995
                            User time (sec):      414.183
                          System time (sec):        5.812
                         Elapsed time (sec):      420.279
  
                   Maximum memory used (kb):      407548.
                   Average memory used (kb):           0.
  
                          Minor page faults:       188018
                          Major page faults:           14
                 Voluntary context switches:         7362
