<?xml version="1.0" encoding="ISO-8859-1"?>
<modeling>
 <generator>
  <i name="program" type="string">vasp </i>
  <i name="version" type="string">5.4.4.18Apr17-6-g9f103f2a35  </i>
  <i name="subversion" type="string">(build Aug 24 2017 11:22:49) complex            parallel </i>
  <i name="platform" type="string">LinuxIFC </i>
  <i name="date" type="string">2023 12 25 </i>
  <i name="time" type="string">13:07:35 </i>
 </generator>
 <incar>
  <i type="string" name="PREC">accurate</i>
  <i type="string" name="ALGO"> Normal</i>
  <i type="int" name="NELM">   100</i>
  <i type="int" name="IBRION">     8</i>
  <i name="EDIFF">      0.00000001</i>
  <i name="SYMPREC">      0.00000001</i>
  <i name="ENCUT">    520.00000000</i>
  <i type="logical" name="LREAL"> F  </i>
  <i type="int" name="ISMEAR">     0</i>
  <i name="SIGMA">      0.01000000</i>
  <i type="logical" name="LWAVE"> F  </i>
  <v type="int" name="KPOINT_BSE">    -1     0     0     0</v>
  <i type="int" name="NELM">   100</i>
  <i type="logical" name="LPEAD"> T  </i>
  <i type="logical" name="LEPSILON"> T  </i>
 </incar>
 <structure name="primitive_cell" >
  <crystal>
   <varray name="basis" >
    <v>      -2.79406300       0.00000000       2.79406300 </v>
    <v>       0.00000000       2.79406300       2.79406300 </v>
    <v>      -2.79406300       2.79406300       0.00000000 </v>
   </varray>
   <i name="volume">     43.62531541 </i>
   <varray name="rec_basis" >
    <v>      -0.17895087      -0.17895087       0.17895087 </v>
    <v>       0.17895087       0.17895087       0.17895087 </v>
    <v>      -0.17895087       0.17895087      -0.17895087 </v>
   </varray>
  </crystal>
  <varray name="positions" >
   <v>       0.00000000       0.00000000       0.00000000 </v>
   <v>       0.49999996      -0.49999996       0.49999996 </v>
  </varray>
 </structure>
 <varray name="primitive_index" >
  <v type="int" >        1 </v>
  <v type="int" >        2 </v>
 </varray>
 <kpoints>
  <generation param="Gamma">
   <v type="int" name="divisions">      12       12       12 </v>
   <v name="usershift">      0.00000000       0.00000000       0.00000000 </v>
   <v name="genvec1">      0.08333333       0.00000000       0.00000000 </v>
   <v name="genvec2">      0.00000000       0.08333333      -0.00000000 </v>
   <v name="genvec3">     -0.00000000      -0.00000000       0.08333333 </v>
   <v name="shift">      0.00000000       0.00000000       0.00000000 </v>
  </generation>
  <varray name="kpointlist" >
   <v>       0.00000000       0.00000000       0.00000000 </v>
   <v>       0.08333333      -0.00000000      -0.00000000 </v>
   <v>       0.16666667       0.00000000      -0.00000000 </v>
   <v>       0.25000000      -0.00000000      -0.00000000 </v>
   <v>       0.33333333      -0.00000000      -0.00000000 </v>
   <v>       0.41666667      -0.00000000      -0.00000000 </v>
   <v>       0.50000000      -0.00000000      -0.00000000 </v>
   <v>       0.08333333       0.08333333      -0.00000000 </v>
   <v>       0.16666667       0.08333333      -0.00000000 </v>
   <v>       0.25000000       0.08333333      -0.00000000 </v>
   <v>       0.33333333       0.08333333      -0.00000000 </v>
   <v>       0.41666667       0.08333333      -0.00000000 </v>
   <v>       0.50000000       0.08333333      -0.00000000 </v>
   <v>      -0.41666667       0.08333333       0.00000000 </v>
   <v>      -0.33333333       0.08333333       0.00000000 </v>
   <v>      -0.25000000       0.08333333       0.00000000 </v>
   <v>      -0.16666667       0.08333333       0.00000000 </v>
   <v>      -0.08333333       0.08333333      -0.00000000 </v>
   <v>       0.16666667       0.16666667      -0.00000000 </v>
   <v>       0.25000000       0.16666667      -0.00000000 </v>
   <v>       0.33333333       0.16666667      -0.00000000 </v>
   <v>       0.41666667       0.16666667      -0.00000000 </v>
   <v>       0.50000000       0.16666667      -0.00000000 </v>
   <v>      -0.41666667       0.16666667      -0.00000000 </v>
   <v>      -0.33333333       0.16666667      -0.00000000 </v>
   <v>      -0.25000000       0.16666667       0.00000000 </v>
   <v>      -0.16666667       0.16666667      -0.00000000 </v>
   <v>       0.25000000       0.25000000      -0.00000000 </v>
   <v>       0.33333333       0.25000000      -0.00000000 </v>
   <v>       0.41666667       0.25000000      -0.00000000 </v>
   <v>       0.50000000       0.25000000      -0.00000000 </v>
   <v>      -0.41666667       0.25000000      -0.00000000 </v>
   <v>      -0.33333333       0.25000000      -0.00000000 </v>
   <v>      -0.25000000       0.25000000       0.00000000 </v>
   <v>       0.33333333       0.33333333      -0.00000000 </v>
   <v>       0.41666667       0.33333333      -0.00000000 </v>
   <v>       0.50000000       0.33333333      -0.00000000 </v>
   <v>      -0.41666667       0.33333333       0.00000000 </v>
   <v>      -0.33333333       0.33333333       0.00000000 </v>
   <v>       0.41666667       0.41666667      -0.00000000 </v>
   <v>       0.50000000       0.41666667      -0.00000000 </v>
   <v>      -0.41666667       0.41666667       0.00000000 </v>
   <v>       0.50000000       0.50000000      -0.00000000 </v>
   <v>       0.08333333      -0.00000000       0.08333333 </v>
   <v>       0.16666667       0.00000000       0.08333333 </v>
   <v>       0.25000000       0.00000000       0.08333333 </v>
   <v>       0.33333333       0.00000000       0.08333333 </v>
   <v>       0.41666667       0.00000000       0.08333333 </v>
   <v>       0.50000000      -0.00000000       0.08333333 </v>
   <v>      -0.41666667       0.00000000       0.08333333 </v>
   <v>      -0.33333333      -0.00000000       0.08333333 </v>
   <v>      -0.25000000       0.00000000       0.08333333 </v>
   <v>      -0.16666667       0.00000000       0.08333333 </v>
   <v>      -0.08333333       0.00000000       0.08333333 </v>
   <v>       0.25000000       0.16666667       0.08333333 </v>
   <v>       0.33333333       0.16666667       0.08333333 </v>
   <v>       0.41666667       0.16666667       0.08333333 </v>
   <v>       0.50000000       0.16666667       0.08333333 </v>
   <v>      -0.41666667       0.16666667       0.08333333 </v>
   <v>       0.16666667       0.25000000       0.08333333 </v>
   <v>       0.33333333       0.25000000       0.08333333 </v>
   <v>       0.41666667       0.25000000       0.08333333 </v>
   <v>       0.50000000       0.25000000       0.08333333 </v>
   <v>      -0.41666667       0.25000000       0.08333333 </v>
   <v>      -0.33333333       0.25000000       0.08333333 </v>
   <v>      -0.25000000       0.25000000       0.08333333 </v>
   <v>      -0.16666667       0.25000000       0.08333333 </v>
   <v>       0.16666667       0.33333333       0.08333333 </v>
   <v>       0.25000000       0.33333333       0.08333333 </v>
   <v>       0.41666667       0.33333333       0.08333333 </v>
   <v>       0.50000000       0.33333333       0.08333333 </v>
   <v>      -0.41666667       0.33333333       0.08333333 </v>
   <v>      -0.33333333       0.33333333       0.08333333 </v>
   <v>      -0.25000000       0.33333333       0.08333333 </v>
   <v>       0.16666667       0.41666667       0.08333333 </v>
   <v>       0.25000000       0.41666667       0.08333333 </v>
   <v>       0.33333333       0.41666667       0.08333333 </v>
   <v>       0.50000000       0.41666667       0.08333333 </v>
   <v>      -0.41666667       0.41666667       0.08333333 </v>
   <v>      -0.33333333       0.41666667       0.08333333 </v>
   <v>       0.16666667       0.50000000       0.08333333 </v>
   <v>       0.25000000       0.50000000       0.08333333 </v>
   <v>       0.33333333       0.50000000       0.08333333 </v>
   <v>       0.41666667       0.50000000       0.08333333 </v>
   <v>      -0.41666667       0.50000000       0.08333333 </v>
   <v>       0.16666667      -0.41666667       0.08333333 </v>
   <v>       0.25000000      -0.41666667       0.08333333 </v>
   <v>       0.33333333      -0.41666667       0.08333333 </v>
   <v>       0.41666667      -0.41666667       0.08333333 </v>
   <v>       0.50000000      -0.41666667       0.08333333 </v>
   <v>       0.16666667      -0.33333333       0.08333333 </v>
   <v>       0.25000000      -0.33333333       0.08333333 </v>
   <v>       0.33333333      -0.33333333       0.08333333 </v>
   <v>       0.41666667      -0.33333333       0.08333333 </v>
   <v>       0.16666667      -0.25000000       0.08333333 </v>
   <v>       0.25000000      -0.25000000       0.08333333 </v>
   <v>       0.33333333      -0.25000000       0.08333333 </v>
   <v>       0.16666667      -0.16666667       0.08333333 </v>
   <v>       0.25000000      -0.16666667       0.08333333 </v>
   <v>       0.16666667      -0.08333333       0.08333333 </v>
   <v>       0.16666667      -0.00000000       0.16666667 </v>
   <v>       0.25000000      -0.00000000       0.16666667 </v>
   <v>       0.33333333      -0.00000000       0.16666667 </v>
   <v>       0.41666667       0.00000000       0.16666667 </v>
   <v>       0.50000000      -0.00000000       0.16666667 </v>
   <v>      -0.41666667      -0.00000000       0.16666667 </v>
   <v>      -0.33333333       0.00000000       0.16666667 </v>
   <v>      -0.25000000       0.00000000       0.16666667 </v>
   <v>      -0.16666667      -0.00000000       0.16666667 </v>
   <v>       0.50000000       0.33333333       0.16666667 </v>
   <v>      -0.41666667       0.33333333       0.16666667 </v>
   <v>      -0.33333333       0.33333333       0.16666667 </v>
   <v>       0.25000000       0.41666667       0.16666667 </v>
   <v>      -0.41666667       0.41666667       0.16666667 </v>
   <v>      -0.33333333       0.41666667       0.16666667 </v>
   <v>      -0.25000000       0.41666667       0.16666667 </v>
   <v>       0.25000000       0.50000000       0.16666667 </v>
   <v>       0.33333333       0.50000000       0.16666667 </v>
   <v>      -0.33333333       0.50000000       0.16666667 </v>
   <v>       0.25000000      -0.41666667       0.16666667 </v>
   <v>       0.33333333      -0.41666667       0.16666667 </v>
   <v>       0.41666667      -0.41666667       0.16666667 </v>
   <v>       0.25000000      -0.33333333       0.16666667 </v>
   <v>       0.33333333      -0.33333333       0.16666667 </v>
   <v>       0.41666667      -0.33333333       0.16666667 </v>
   <v>       0.50000000      -0.33333333       0.16666667 </v>
   <v>       0.25000000      -0.25000000       0.16666667 </v>
   <v>       0.33333333      -0.25000000       0.16666667 </v>
   <v>       0.41666667      -0.25000000       0.16666667 </v>
   <v>       0.25000000      -0.16666667       0.16666667 </v>
   <v>       0.33333333      -0.16666667       0.16666667 </v>
   <v>       0.25000000      -0.08333333       0.16666667 </v>
   <v>       0.25000000      -0.00000000       0.25000000 </v>
   <v>       0.33333333      -0.00000000       0.25000000 </v>
   <v>       0.41666667      -0.00000000       0.25000000 </v>
   <v>       0.50000000      -0.00000000       0.25000000 </v>
   <v>      -0.41666667      -0.00000000       0.25000000 </v>
   <v>      -0.33333333       0.00000000       0.25000000 </v>
   <v>      -0.25000000       0.00000000       0.25000000 </v>
   <v>      -0.25000000       0.50000000       0.25000000 </v>
   <v>       0.33333333      -0.41666667       0.25000000 </v>
   <v>       0.33333333      -0.33333333       0.25000000 </v>
   <v>       0.41666667      -0.33333333       0.25000000 </v>
   <v>       0.33333333      -0.25000000       0.25000000 </v>
   <v>       0.41666667      -0.25000000       0.25000000 </v>
   <v>       0.50000000      -0.25000000       0.25000000 </v>
   <v>       0.33333333      -0.16666667       0.25000000 </v>
   <v>       0.41666667      -0.16666667       0.25000000 </v>
   <v>       0.33333333      -0.08333333       0.25000000 </v>
   <v>       0.33333333      -0.00000000       0.33333333 </v>
   <v>       0.41666667      -0.00000000       0.33333333 </v>
   <v>       0.50000000       0.00000000       0.33333333 </v>
   <v>      -0.41666667       0.00000000       0.33333333 </v>
   <v>      -0.33333333       0.00000000       0.33333333 </v>
   <v>       0.41666667      -0.25000000       0.33333333 </v>
   <v>       0.41666667      -0.16666667       0.33333333 </v>
   <v>       0.50000000      -0.16666667       0.33333333 </v>
   <v>       0.41666667      -0.08333333       0.33333333 </v>
   <v>       0.41666667      -0.00000000       0.41666667 </v>
   <v>       0.50000000      -0.00000000       0.41666667 </v>
   <v>      -0.41666667       0.00000000       0.41666667 </v>
   <v>       0.50000000      -0.08333333       0.41666667 </v>
   <v>       0.50000000      -0.00000000       0.50000000 </v>
  </varray>
  <varray name="weights" >
   <v>       0.00057870 </v>
   <v>       0.00462963 </v>
   <v>       0.00462963 </v>
   <v>       0.00462963 </v>
   <v>       0.00462963 </v>
   <v>       0.00462963 </v>
   <v>       0.00231481 </v>
   <v>       0.00231481 </v>
   <v>       0.00925926 </v>
   <v>       0.00925926 </v>
   <v>       0.00925926 </v>
   <v>       0.00925926 </v>
   <v>       0.00925926 </v>
   <v>       0.00925926 </v>
   <v>       0.00925926 </v>
   <v>       0.00925926 </v>
   <v>       0.00925926 </v>
   <v>       0.00462963 </v>
   <v>       0.00231481 </v>
   <v>       0.00925926 </v>
   <v>       0.00925926 </v>
   <v>       0.00925926 </v>
   <v>       0.00925926 </v>
   <v>       0.00925926 </v>
   <v>       0.00925926 </v>
   <v>       0.00925926 </v>
   <v>       0.00462963 </v>
   <v>       0.00231481 </v>
   <v>       0.00925926 </v>
   <v>       0.00925926 </v>
   <v>       0.00925926 </v>
   <v>       0.00925926 </v>
   <v>       0.00925926 </v>
   <v>       0.00462963 </v>
   <v>       0.00231481 </v>
   <v>       0.00925926 </v>
   <v>       0.00925926 </v>
   <v>       0.00925926 </v>
   <v>       0.00462963 </v>
   <v>       0.00231481 </v>
   <v>       0.00925926 </v>
   <v>       0.00462963 </v>
   <v>       0.00115741 </v>
   <v>       0.00115741 </v>
   <v>       0.00462963 </v>
   <v>       0.00462963 </v>
   <v>       0.00462963 </v>
   <v>       0.00462963 </v>
   <v>       0.00462963 </v>
   <v>       0.00462963 </v>
   <v>       0.00462963 </v>
   <v>       0.00462963 </v>
   <v>       0.00462963 </v>
   <v>       0.00231481 </v>
   <v>       0.00462963 </v>
   <v>       0.00925926 </v>
   <v>       0.00925926 </v>
   <v>       0.00925926 </v>
   <v>       0.00462963 </v>
   <v>       0.00462963 </v>
   <v>       0.00462963 </v>
   <v>       0.00925926 </v>
   <v>       0.00925926 </v>
   <v>       0.00925926 </v>
   <v>       0.00925926 </v>
   <v>       0.00925926 </v>
   <v>       0.00462963 </v>
   <v>       0.00925926 </v>
   <v>       0.00462963 </v>
   <v>       0.00462963 </v>
   <v>       0.00925926 </v>
   <v>       0.00925926 </v>
   <v>       0.00925926 </v>
   <v>       0.00462963 </v>
   <v>       0.00925926 </v>
   <v>       0.00925926 </v>
   <v>       0.00462963 </v>
   <v>       0.00462963 </v>
   <v>       0.00925926 </v>
   <v>       0.00462963 </v>
   <v>       0.00925926 </v>
   <v>       0.00925926 </v>
   <v>       0.00925926 </v>
   <v>       0.00462963 </v>
   <v>       0.00231481 </v>
   <v>       0.00925926 </v>
   <v>       0.00925926 </v>
   <v>       0.00925926 </v>
   <v>       0.00925926 </v>
   <v>       0.00231481 </v>
   <v>       0.00925926 </v>
   <v>       0.00925926 </v>
   <v>       0.00925926 </v>
   <v>       0.00462963 </v>
   <v>       0.00925926 </v>
   <v>       0.00925926 </v>
   <v>       0.00462963 </v>
   <v>       0.00925926 </v>
   <v>       0.00462963 </v>
   <v>       0.00462963 </v>
   <v>       0.00115741 </v>
   <v>       0.00462963 </v>
   <v>       0.00462963 </v>
   <v>       0.00462963 </v>
   <v>       0.00462963 </v>
   <v>       0.00462963 </v>
   <v>       0.00462963 </v>
   <v>       0.00462963 </v>
   <v>       0.00231481 </v>
   <v>       0.00462963 </v>
   <v>       0.00925926 </v>
   <v>       0.00462963 </v>
   <v>       0.00462963 </v>
   <v>       0.00462963 </v>
   <v>       0.00925926 </v>
   <v>       0.00462963 </v>
   <v>       0.00925926 </v>
   <v>       0.00462963 </v>
   <v>       0.00231481 </v>
   <v>       0.00925926 </v>
   <v>       0.00925926 </v>
   <v>       0.00462963 </v>
   <v>       0.00925926 </v>
   <v>       0.00925926 </v>
   <v>       0.00925926 </v>
   <v>       0.00231481 </v>
   <v>       0.00925926 </v>
   <v>       0.00925926 </v>
   <v>       0.00462963 </v>
   <v>       0.00925926 </v>
   <v>       0.00462963 </v>
   <v>       0.00462963 </v>
   <v>       0.00115741 </v>
   <v>       0.00462963 </v>
   <v>       0.00462963 </v>
   <v>       0.00462963 </v>
   <v>       0.00462963 </v>
   <v>       0.00462963 </v>
   <v>       0.00231481 </v>
   <v>       0.00115741 </v>
   <v>       0.00462963 </v>
   <v>       0.00925926 </v>
   <v>       0.00462963 </v>
   <v>       0.00925926 </v>
   <v>       0.00925926 </v>
   <v>       0.00231481 </v>
   <v>       0.00925926 </v>
   <v>       0.00462963 </v>
   <v>       0.00462963 </v>
   <v>       0.00115741 </v>
   <v>       0.00462963 </v>
   <v>       0.00462963 </v>
   <v>       0.00462963 </v>
   <v>       0.00231481 </v>
   <v>       0.00462963 </v>
   <v>       0.00925926 </v>
   <v>       0.00231481 </v>
   <v>       0.00462963 </v>
   <v>       0.00115741 </v>
   <v>       0.00462963 </v>
   <v>       0.00231481 </v>
   <v>       0.00231481 </v>
   <v>       0.00057870 </v>
  </varray>
 </kpoints>
 <parameters>
  <separator name="general" >
   <i type="string" name="SYSTEM">unknown system</i>
   <i type="logical" name="LCOMPAT"> F  </i>
  </separator>
  <separator name="electronic" >
   <i type="string" name="PREC">accura</i>
   <i name="ENMAX">    520.00000000</i>
   <i name="ENAUG">    368.05600000</i>
   <i name="EDIFF">      0.00000001</i>
   <i type="int" name="IALGO">    38</i>
   <i type="int" name="IWAVPR">    11</i>
   <i type="int" name="NBANDS">    16</i>
   <i name="NELECT">     14.00000000</i>
   <i type="int" name="TURBO">     0</i>
   <i type="int" name="IRESTART">     0</i>
   <i type="int" name="NREBOOT">     0</i>
   <i type="int" name="NMIN">     0</i>
   <i name="EREF">      0.00000000</i>
   <separator name="electronic smearing" >
    <i type="int" name="ISMEAR">     0</i>
    <i name="SIGMA">      0.01000000</i>
    <i name="KSPACING">      0.50000000</i>
    <i type="logical" name="KGAMMA"> T  </i>
   </separator>
   <separator name="electronic projectors" >
    <i type="logical" name="LREAL"> F  </i>
    <v name="ROPT">      0.00000000      0.00000000</v>
    <i type="int" name="LMAXPAW">  -100</i>
    <i type="int" name="LMAXMIX">     2</i>
    <i type="logical" name="NLSPLINE"> F  </i>
   </separator>
   <separator name="electronic startup" >
    <i type="int" name="ISTART">     0</i>
    <i type="int" name="ICHARG">     2</i>
    <i type="int" name="INIWAV">     1</i>
   </separator>
   <separator name="electronic spin" >
    <i type="int" name="ISPIN">     1</i>
    <i type="logical" name="LNONCOLLINEAR"> F  </i>
    <v name="MAGMOM">      1.00000000      1.00000000</v>
    <i name="NUPDOWN">     -1.00000000</i>
    <i type="logical" name="LSORBIT"> F  </i>
    <v name="SAXIS">      0.00000000      0.00000000      1.00000000</v>
    <i type="logical" name="LSPIRAL"> F  </i>
    <v name="QSPIRAL">      0.00000000      0.00000000      0.00000000</v>
    <i type="logical" name="LZEROZ"> F  </i>
   </separator>
   <separator name="electronic exchange-correlation" >
    <i type="logical" name="LASPH"> F  </i>
    <i type="logical" name="LMETAGGA"> F  </i>
   </separator>
   <separator name="electronic convergence" >
    <i type="int" name="NELM">   100</i>
    <i type="int" name="NELMDL">    -5</i>
    <i type="int" name="NELMIN">     2</i>
    <i name="ENINI">    520.00000000</i>
    <separator name="electronic convergence detail" >
     <i type="logical" name="LDIAG"> T  </i>
     <i type="logical" name="LSUBROT"> F  </i>
     <i name="WEIMIN">      0.00100000</i>
     <i name="EBREAK">      0.00000000</i>
     <i name="DEPER">      0.30000000</i>
     <i type="int" name="NRMM">     4</i>
     <i name="TIME">      0.40000000</i>
    </separator>
   </separator>
   <separator name="electronic mixer" >
    <i name="AMIX">      0.40000000</i>
    <i name="BMIX">      1.00000000</i>
    <i name="AMIN">      0.10000000</i>
    <i name="AMIX_MAG">      1.60000000</i>
    <i name="BMIX_MAG">      1.00000000</i>
    <separator name="electronic mixer details" >
     <i type="int" name="IMIX">     4</i>
     <i type="logical" name="MIXFIRST"> F  </i>
     <i type="int" name="MAXMIX">   -45</i>
     <i name="WC">    100.00000000</i>
     <i type="int" name="INIMIX">     1</i>
     <i type="int" name="MIXPRE">     1</i>
     <i type="int" name="MREMOVE">     5</i>
    </separator>
   </separator>
   <separator name="electronic dipolcorrection" >
    <i type="logical" name="LDIPOL"> F  </i>
    <i type="logical" name="LMONO"> F  </i>
    <i type="int" name="IDIPOL">     0</i>
    <i name="EPSILON">      1.00000000</i>
    <v name="DIPOL">   -100.00000000   -100.00000000   -100.00000000</v>
    <i name="EFIELD">      0.00000000</i>
   </separator>
  </separator>
  <separator name="grids" >
   <i type="int" name="NGX">    30</i>
   <i type="int" name="NGY">    30</i>
   <i type="int" name="NGZ">    30</i>
   <i type="int" name="NGXF">    60</i>
   <i type="int" name="NGYF">    60</i>
   <i type="int" name="NGZF">    60</i>
   <i type="logical" name="ADDGRID"> F  </i>
  </separator>
  <separator name="ionic" >
   <i type="int" name="NSW">     1</i>
   <i type="int" name="IBRION">     8</i>
   <i type="int" name="MDALGO">     0</i>
   <i type="int" name="ISIF">     2</i>
   <i name="PSTRESS">      0.00000000</i>
   <i name="EDIFFG">      0.00000010</i>
   <i type="int" name="NFREE">     0</i>
   <i name="POTIM">      0.50000000</i>
   <i name="SMASS">     -3.00000000</i>
   <i name="SCALEE">      1.00000000</i>
  </separator>
  <separator name="ionic md" >
   <i name="TEBEG">      0.00010000</i>
   <i name="TEEND">      0.00010000</i>
   <i type="int" name="NBLOCK">     1</i>
   <i type="int" name="KBLOCK">     1</i>
   <i type="int" name="NPACO">   256</i>
   <i name="APACO">     16.00000000</i>
  </separator>
  <separator name="symmetry" >
   <i type="int" name="ISYM">     2</i>
   <i name="SYMPREC">      0.00000001</i>
  </separator>
  <separator name="dos" >
   <i type="int" name="LORBIT">     0</i>
   <v name="RWIGS">     -1.00000000     -1.00000000</v>
   <i type="int" name="NEDOS">   301</i>
   <i name="EMIN">     10.00000000</i>
   <i name="EMAX">    -10.00000000</i>
   <i name="EFERMI">      0.00000000</i>
  </separator>
  <separator name="writing" >
   <i type="int" name="NWRITE">     2</i>
   <i type="logical" name="LWAVE"> F  </i>
   <i type="logical" name="LDOWNSAMPLE"> F  </i>
   <i type="logical" name="LCHARG"> T  </i>
   <i type="logical" name="LPARD"> F  </i>
   <i type="logical" name="LVTOT"> F  </i>
   <i type="logical" name="LVHAR"> F  </i>
   <i type="logical" name="LELF"> F  </i>
   <i type="logical" name="LOPTICS"> F  </i>
   <v name="STM">      0.00000000      0.00000000      0.00000000      0.00000000      0.00000000      0.00000000      0.00000000</v>
  </separator>
  <separator name="performance" >
   <i type="int" name="NPAR">     8</i>
   <i type="int" name="NSIM">     4</i>
   <i type="int" name="NBLK">    -1</i>
   <i type="logical" name="LPLANE"> T  </i>
   <i type="logical" name="LSCALAPACK"> T  </i>
   <i type="logical" name="LSCAAWARE"> F  </i>
   <i type="logical" name="LSCALU"> F  </i>
   <i type="logical" name="LASYNC"> F  </i>
   <i type="logical" name="LORBITALREAL"> F  </i>
  </separator>
  <separator name="miscellaneous" >
   <i type="int" name="IDIOT">     3</i>
   <i type="int" name="ISPECIAL">     0</i>
   <i type="logical" name="LMUSIC"> F  </i>
   <v name="POMASS">     22.99000000     35.45300000</v>
   <v name="DARWINR">      0.00000000      0.00000000</v>
   <v name="DARWINV">      1.00000000      1.00000000</v>
   <i type="logical" name="LCORR"> T  </i>
  </separator>
  <i type="logical" name="GGA_COMPAT"> T  </i>
  <i type="logical" name="LBERRY"> F  </i>
  <i type="int" name="ICORELEVEL">     0</i>
  <i type="logical" name="LDAU"> F  </i>
  <i type="int" name="I_CONSTRAINED_M">     0</i>
  <separator name="electronic exchange-correlation" >
   <i type="string" name="GGA">--</i>
   <i type="int" name="VOSKOWN">     0</i>
   <i type="logical" name="LHFCALC"> F  </i>
   <i type="string" name="PRECFOCK"></i>
   <i type="logical" name="LSYMGRAD"> F  </i>
   <i type="logical" name="LHFONE"> F  </i>
   <i type="logical" name="LRHFCALC"> F  </i>
   <i type="logical" name="LTHOMAS"> F  </i>
   <i type="logical" name="LMODELHF"> F  </i>
   <i name="ENCUT4O">     -1.00000000</i>
   <i type="int" name="EXXOEP">     0</i>
   <i type="int" name="FOURORBIT">     0</i>
   <i name="AEXX">      0.00000000</i>
   <i name="HFALPHA">      0.00000000</i>
   <i name="MCALPHA">      0.00000000</i>
   <i name="ALDAX">      1.00000000</i>
   <i name="AGGAX">      1.00000000</i>
   <i name="ALDAC">      1.00000000</i>
   <i name="AGGAC">      1.00000000</i>
   <i type="int" name="NKREDX">     1</i>
   <i type="int" name="NKREDY">     1</i>
   <i type="int" name="NKREDZ">     1</i>
   <i type="logical" name="SHIFTRED"> F  </i>
   <i type="logical" name="ODDONLY"> F  </i>
   <i type="logical" name="EVENONLY"> F  </i>
   <i type="int" name="LMAXFOCK">     0</i>
   <i type="int" name="NMAXFOCKAE">     0</i>
   <i type="logical" name="LFOCKAEDFT"> F  </i>
   <i name="HFSCREEN">      0.00000000</i>
   <i name="HFSCREENC">      0.00000000</i>
   <i type="int" name="NBANDSGWLOW">     0</i>
  </separator>
  <separator name="vdW DFT" >
   <i type="logical" name="LUSE_VDW"> F  </i>
   <i name="Zab_VDW">     -0.84910000</i>
   <i name="PARAM1">      0.12340000</i>
   <i name="PARAM2">      1.00000000</i>
   <i name="PARAM3">      0.00000000</i>
  </separator>
  <separator name="model GW" >
   <i type="int" name="MODEL_GW">     0</i>
   <i name="MODEL_EPS0">     13.08759462</i>
   <i name="MODEL_ALPHA">      1.00000000</i>
  </separator>
  <separator name="linear response parameters" >
   <i type="logical" name="LEPSILON"> T  </i>
   <i type="logical" name="LRPA"> F  </i>
   <i type="logical" name="LNABLA"> F  </i>
   <i type="logical" name="LVEL"> F  </i>
   <i type="int" name="KINTER">     0</i>
   <i name="CSHIFT">      0.10000000</i>
   <i name="OMEGAMAX">     -1.00000000</i>
   <i name="DEG_THRESHOLD">      0.00200000</i>
   <i name="RTIME">     -0.10000000</i>
   <i name="WPLASMAI">      0.00000000</i>
   <v name="DFIELD">      0.00000000      0.00000000      0.00000000</v>
   <v name="WPLASMA">      0.00000000      0.00000000      0.00000000      0.00000000      0.00000000      0.00000000      0.00000000      0.00000000      0.00000000</v>
  </separator>
  <separator name="orbital magnetization" >
   <i type="logical" name="NUCIND"> F  </i>
   <v name="MAGPOS">      0.00000000      0.00000000      0.00000000</v>
   <i type="logical" name="LNICSALL"> T  </i>
   <i type="logical" name="ORBITALMAG"> F  </i>
   <i type="logical" name="LMAGBLOCH"> F  </i>
   <i type="logical" name="LCHIMAG"> F  </i>
   <i type="logical" name="LGAUGE"> T  </i>
   <i type="int" name="MAGATOM">     0</i>
   <v name="MAGDIPOL">      0.00000000      0.00000000      0.00000000</v>
   <v name="AVECCONST">      0.00000000      0.00000000      0.00000000</v>
  </separator>
  <separator name="response functions" >
   <i type="logical" name="LADDER"> F  </i>
   <i type="logical" name="LRPAFORCE"> F  </i>
   <i type="logical" name="LFXC"> F  </i>
   <i type="logical" name="LHARTREE"> T  </i>
   <i type="int" name="IBSE">     0</i>
   <v type="int" name="KPOINT">    -1     0     0     0</v>
   <i type="logical" name="LTCTE"> F  </i>
   <i type="logical" name="LTETE"> F  </i>
   <i type="logical" name="LTRIPLET"> F  </i>
   <i type="logical" name="LFXCEPS"> F  </i>
   <i type="logical" name="LFXHEG"> F  </i>
   <i type="int" name="NATURALO">     2</i>
   <i type="logical" name="L2ORDER"> F  </i>
   <i type="logical" name="LMP2LT"> F  </i>
   <i type="logical" name="LUSEW"> F  </i>
   <i name="ENCUTGW">     -2.00000000</i>
   <i name="ENCUTGWSOFT">     -2.00000000</i>
   <i name="ENCUTLF">     -1.00000000</i>
   <i type="int" name="LMAXMP2">    -1</i>
   <i name="SCISSOR">      0.00000000</i>
   <i type="int" name="NOMEGA">     0</i>
   <i type="int" name="NOMEGAR">     0</i>
   <i type="int" name="NBANDSGW">    -1</i>
   <i type="int" name="NBANDSO">    -1</i>
   <i type="int" name="NBANDSV">    -1</i>
   <i type="int" name="NELM">   100</i>
   <i type="int" name="NELMHF">     1</i>
   <i type="int" name="DIM">     3</i>
   <i type="int" name="ANTIRES">     0</i>
   <i name="OMEGAMAX">    -30.00000000</i>
   <i name="OMEGAMIN">    -30.00000000</i>
   <i name="OMEGATL">   -200.00000000</i>
   <i type="int" name="OMEGAGRID">   140</i>
   <i name="CSHIFT">     -0.10000000</i>
   <i type="logical" name="SELFENERGY"> F  </i>
   <i type="logical" name="LSPECTRAL"> F  </i>
   <i type="logical" name="LSPECTRALGW"> F  </i>
   <i type="logical" name="LSINGLES"> F  </i>
   <i type="logical" name="LFERMIGW"> F  </i>
   <i type="logical" name="ODDONLYGW"> F  </i>
   <i type="logical" name="EVENONLYGW"> F  </i>
   <i type="int" name="NKREDLFX">     1</i>
   <i type="int" name="NKREDLFY">     1</i>
   <i type="int" name="NKREDLFZ">     1</i>
   <i type="int" name="MAXMEM">  2800</i>
   <i type="int" name="TELESCOPE">     0</i>
   <i type="int" name="TAUPAR">     1</i>
   <i type="int" name="OMEGAPAR">    -1</i>
   <i name="LAMBDA">      1.00000000</i>
  </separator>
  <separator name="External order field" >
   <i name="OFIELD_KAPPA">      0.00000000</i>
   <v name="OFIELD_K">      0.00000000      0.00000000      0.00000000</v>
   <i name="OFIELD_Q6_NEAR">      0.00000000</i>
   <i name="OFIELD_Q6_FAR">      0.00000000</i>
   <i name="OFIELD_A">      0.00000000</i>
  </separator>
 </parameters>
 <atominfo>
  <atoms>       2 </atoms>
  <types>       2 </types>
  <array name="atoms" >
   <dimension dim="1">ion</dimension>
   <field type="string">element</field>
   <field type="int">atomtype</field>
   <set>
    <rc><c>Na</c><c>   1</c></rc>
    <rc><c>Cl</c><c>   2</c></rc>
   </set>
  </array>
  <array name="atomtypes" >
   <dimension dim="1">type</dimension>
   <field type="int">atomspertype</field>
   <field type="string">element</field>
   <field>mass</field>
   <field>valence</field>
   <field type="string">pseudopotential</field>
   <set>
    <rc><c>   1</c><c>Na</c><c>     22.99000000</c><c>      7.00000000</c><c>  PAW_PBE Na_pv 19Sep2006               </c></rc>
    <rc><c>   1</c><c>Cl</c><c>     35.45300000</c><c>      7.00000000</c><c>  PAW_PBE Cl 06Sep2000                  </c></rc>
   </set>
  </array>
 </atominfo>
 <structure name="initialpos" >
  <crystal>
   <varray name="basis" >
    <v>      -2.79406300       0.00000000       2.79406300 </v>
    <v>       0.00000000       2.79406300       2.79406300 </v>
    <v>      -2.79406300       2.79406300       0.00000000 </v>
   </varray>
   <i name="volume">     43.62531541 </i>
   <varray name="rec_basis" >
    <v>      -0.17895087      -0.17895087       0.17895087 </v>
    <v>       0.17895087       0.17895087       0.17895087 </v>
    <v>      -0.17895087       0.17895087      -0.17895087 </v>
   </varray>
  </crystal>
  <varray name="positions" >
   <v>       0.00000000       0.00000000       0.00000000 </v>
   <v>       0.49999996       0.50000004       0.49999996 </v>
  </varray>
 </structure>
 <calculation>
  <scstep>
   <time name="dav">    1.11    1.12</time>
   <time name="total">    1.13    1.14</time>
   <energy>
    <i name="alphaZ">     23.66058437 </i>
    <i name="ewald">   -716.50765437 </i>
    <i name="hartreedc">   -280.04726234 </i>
    <i name="XCdc">     44.85555861 </i>
    <i name="pawpsdc">    827.62341595 </i>
    <i name="pawaedc">   -916.31000354 </i>
    <i name="eentropy">     -0.00008507 </i>
    <i name="bandstr">    -55.48874842 </i>
    <i name="atom">   1175.76555785 </i>
    <i name="e_fr_energy">    103.55136305 </i>
    <i name="e_wo_entrp">    103.55144812 </i>
    <i name="e_0_energy">    103.55140559 </i>
   </energy>
  </scstep>
  <scstep>
   <time name="dav">    1.19    1.20</time>
   <time name="total">    1.19    1.20</time>
   <energy>
    <i name="e_fr_energy">      0.70628102 </i>
    <i name="e_wo_entrp">      0.70628102 </i>
    <i name="e_0_energy">      0.70628102 </i>
   </energy>
  </scstep>
  <scstep>
   <time name="dav">    1.37    1.38</time>
   <time name="total">    1.37    1.38</time>
   <energy>
    <i name="e_fr_energy">     -6.85454118 </i>
    <i name="e_wo_entrp">     -6.85454118 </i>
    <i name="e_0_energy">     -6.85454118 </i>
   </energy>
  </scstep>
  <scstep>
   <time name="dav">    1.21    1.22</time>
   <time name="total">    1.21    1.22</time>
   <energy>
    <i name="e_fr_energy">     -6.95703535 </i>
    <i name="e_wo_entrp">     -6.95703535 </i>
    <i name="e_0_energy">     -6.95703535 </i>
   </energy>
  </scstep>
  <scstep>
   <time name="dav">    1.33    1.34</time>
   <time name="total">    1.40    1.41</time>
   <energy>
    <i name="e_fr_energy">     -6.95902162 </i>
    <i name="e_wo_entrp">     -6.95902162 </i>
    <i name="e_0_energy">     -6.95902162 </i>
   </energy>
  </scstep>
  <scstep>
   <time name="dav">    1.28    1.29</time>
   <time name="total">    1.36    1.37</time>
   <energy>
    <i name="e_fr_energy">     -6.77164951 </i>
    <i name="e_wo_entrp">     -6.77164951 </i>
    <i name="e_0_energy">     -6.77164951 </i>
   </energy>
  </scstep>
  <scstep>
   <time name="dav">    1.35    1.35</time>
   <time name="total">    1.43    1.43</time>
   <energy>
    <i name="e_fr_energy">     -6.76038500 </i>
    <i name="e_wo_entrp">     -6.76038500 </i>
    <i name="e_0_energy">     -6.76038500 </i>
   </energy>
  </scstep>
  <scstep>
   <time name="dav">    1.13    1.14</time>
   <time name="total">    1.21    1.22</time>
   <energy>
    <i name="e_fr_energy">     -6.76591389 </i>
    <i name="e_wo_entrp">     -6.76591389 </i>
    <i name="e_0_energy">     -6.76591389 </i>
   </energy>
  </scstep>
  <scstep>
   <time name="dav">    1.35    1.36</time>
   <time name="total">    1.43    1.44</time>
   <energy>
    <i name="e_fr_energy">     -6.76573437 </i>
    <i name="e_wo_entrp">     -6.76573437 </i>
    <i name="e_0_energy">     -6.76573437 </i>
   </energy>
  </scstep>
  <scstep>
   <time name="dav">    1.25    1.27</time>
   <time name="total">    1.33    1.35</time>
   <energy>
    <i name="e_fr_energy">     -6.76582223 </i>
    <i name="e_wo_entrp">     -6.76582223 </i>
    <i name="e_0_energy">     -6.76582223 </i>
   </energy>
  </scstep>
  <scstep>
   <time name="dav">    1.52    1.53</time>
   <time name="total">    1.60    1.61</time>
   <energy>
    <i name="e_fr_energy">     -6.76581644 </i>
    <i name="e_wo_entrp">     -6.76581644 </i>
    <i name="e_0_energy">     -6.76581644 </i>
   </energy>
  </scstep>
  <scstep>
   <time name="dav">    1.32    1.33</time>
   <time name="total">    1.40    1.41</time>
   <energy>
    <i name="e_fr_energy">     -6.76581664 </i>
    <i name="e_wo_entrp">     -6.76581664 </i>
    <i name="e_0_energy">     -6.76581664 </i>
   </energy>
  </scstep>
  <scstep>
   <time name="dav">    1.34    1.36</time>
   <time name="total">    1.42    1.44</time>
   <energy>
    <i name="e_fr_energy">     -6.76581716 </i>
    <i name="e_wo_entrp">     -6.76581716 </i>
    <i name="e_0_energy">     -6.76581716 </i>
   </energy>
  </scstep>
  <scstep>
   <time name="dav">    1.48    1.49</time>
   <time name="total">    1.56    1.57</time>
   <energy>
    <i name="e_fr_energy">     -6.76581698 </i>
    <i name="e_wo_entrp">     -6.76581698 </i>
    <i name="e_0_energy">     -6.76581698 </i>
   </energy>
  </scstep>
  <scstep>
   <time name="dav">    1.05    1.05</time>
   <time name="total">    1.06    1.07</time>
   <energy>
    <i name="alphaZ">     23.66058437 </i>
    <i name="ewald">   -716.50765437 </i>
    <i name="hartreedc">   -283.69941048 </i>
    <i name="XCdc">     45.50553752 </i>
    <i name="pawpsdc">    946.55337874 </i>
    <i name="pawaedc">  -1035.58787898 </i>
    <i name="eentropy">     -0.00000000 </i>
    <i name="bandstr">   -162.45593163 </i>
    <i name="atom">   1175.76555785 </i>
    <i name="e_fr_energy">     -6.76581698 </i>
    <i name="e_wo_entrp">     -6.76581698 </i>
    <i name="e_0_energy">     -6.76581698 </i>
   </energy>
  </scstep>
  <structure>
   <crystal>
    <varray name="basis" >
     <v>      -2.79406300       0.00000000       2.79406300 </v>
     <v>       0.00000000       2.79406300       2.79406300 </v>
     <v>      -2.79406300       2.79406300       0.00000000 </v>
    </varray>
    <i name="volume">     43.62531541 </i>
    <varray name="rec_basis" >
     <v>      -0.17895087      -0.17895087       0.17895087 </v>
     <v>       0.17895087       0.17895087       0.17895087 </v>
     <v>      -0.17895087       0.17895087      -0.17895087 </v>
    </varray>
   </crystal>
   <varray name="positions" >
    <v>       0.00000000       0.00000000       0.00000000 </v>
    <v>       0.49999996       0.50000004       0.49999996 </v>
   </varray>
  </structure>
  <varray name="forces" >
   <v>       0.00000035       0.00000000      -0.00000000 </v>
   <v>      -0.00000035      -0.00000000       0.00000000 </v>
  </varray>
  <varray name="stress" >
   <v>      15.18189180       0.00000000       0.00000000 </v>
   <v>       0.00000000      15.18188048      -0.00000000 </v>
   <v>       0.00000000      -0.00000000      15.18188048 </v>
  </varray>
  <energy>
   <i name="e_fr_energy">     -6.76581698 </i>
   <i name="e_wo_entrp">     -6.76581698 </i>
   <i name="e_0_energy">     -0.00000000 </i>
  </energy>
  <scstep>
   <time name="total">    1.09    1.09</time>
   <energy>
    <i name="e_fr_energy">     -0.18851836 </i>
    <i name="e_wo_entrp">     -0.18851836 </i>
    <i name="e_0_energy">     -0.18851836 </i>
   </energy>
  </scstep>
  <scstep>
   <time name="total">    1.15    1.15</time>
   <energy>
    <i name="e_fr_energy">     -0.21395928 </i>
    <i name="e_wo_entrp">     -0.21395928 </i>
    <i name="e_0_energy">     -0.21395928 </i>
   </energy>
  </scstep>
  <scstep>
   <time name="total">    1.09    1.09</time>
   <energy>
    <i name="e_fr_energy">     -0.21395852 </i>
    <i name="e_wo_entrp">     -0.21395852 </i>
    <i name="e_0_energy">     -0.21395852 </i>
   </energy>
  </scstep>
  <scstep>
   <time name="total">    1.12    1.12</time>
   <energy>
    <i name="e_fr_energy">     -0.21395860 </i>
    <i name="e_wo_entrp">     -0.21395860 </i>
    <i name="e_0_energy">     -0.21395860 </i>
   </energy>
  </scstep>
  <scstep>
   <time name="total">    1.08    1.08</time>
   <energy>
    <i name="e_fr_energy">     -0.21395860 </i>
    <i name="e_wo_entrp">     -0.21395860 </i>
    <i name="e_0_energy">     -0.21395860 </i>
   </energy>
  </scstep>
  <scstep>
   <time name="total">    1.08    1.08</time>
   <energy>
    <i name="e_fr_energy">     -0.20457906 </i>
    <i name="e_wo_entrp">     -0.20457906 </i>
    <i name="e_0_energy">     -0.20457906 </i>
   </energy>
  </scstep>
  <scstep>
   <time name="total">    1.16    1.16</time>
   <energy>
    <i name="e_fr_energy">     -0.23498269 </i>
    <i name="e_wo_entrp">     -0.23498269 </i>
    <i name="e_0_energy">     -0.23498269 </i>
   </energy>
  </scstep>
  <scstep>
   <time name="total">    1.09    1.09</time>
   <energy>
    <i name="e_fr_energy">     -0.23497999 </i>
    <i name="e_wo_entrp">     -0.23497999 </i>
    <i name="e_0_energy">     -0.23497999 </i>
   </energy>
  </scstep>
  <scstep>
   <time name="total">    1.12    1.12</time>
   <energy>
    <i name="e_fr_energy">     -0.23498005 </i>
    <i name="e_wo_entrp">     -0.23498005 </i>
    <i name="e_0_energy">     -0.23498005 </i>
   </energy>
  </scstep>
  <scstep>
   <time name="total">    1.09    1.09</time>
   <energy>
    <i name="e_fr_energy">     -0.23498005 </i>
    <i name="e_wo_entrp">     -0.23498005 </i>
    <i name="e_0_energy">     -0.23498005 </i>
   </energy>
  </scstep>
  <scstep>
   <time name="total">    1.08    1.08</time>
   <energy>
    <i name="e_fr_energy">     -0.17248732 </i>
    <i name="e_wo_entrp">     -0.17248732 </i>
    <i name="e_0_energy">     -0.17248732 </i>
   </energy>
  </scstep>
  <scstep>
   <time name="total">    1.15    1.15</time>
   <energy>
    <i name="e_fr_energy">     -0.19293504 </i>
    <i name="e_wo_entrp">     -0.19293504 </i>
    <i name="e_0_energy">     -0.19293504 </i>
   </energy>
  </scstep>
  <scstep>
   <time name="total">    1.10    1.10</time>
   <energy>
    <i name="e_fr_energy">     -0.19293598 </i>
    <i name="e_wo_entrp">     -0.19293598 </i>
    <i name="e_0_energy">     -0.19293598 </i>
   </energy>
  </scstep>
  <scstep>
   <time name="total">    1.13    1.13</time>
   <energy>
    <i name="e_fr_energy">     -0.19293607 </i>
    <i name="e_wo_entrp">     -0.19293607 </i>
    <i name="e_0_energy">     -0.19293607 </i>
   </energy>
  </scstep>
  <scstep>
   <time name="total">    1.08    1.08</time>
   <energy>
    <i name="e_fr_energy">     -0.19293607 </i>
    <i name="e_wo_entrp">     -0.19293607 </i>
    <i name="e_0_energy">     -0.19293607 </i>
   </energy>
  </scstep>
  <varray name="epsilon_rpa" >
   <v>       2.77495339      -0.00000000       0.00000000 </v>
   <v>      -0.00000000       2.77494893      -0.00000000 </v>
   <v>       0.00000000      -0.00000000       2.77494893 </v>
  </varray>
  <kpoints>
   <generation param="Gamma">
    <v type="int" name="divisions">      12       12       12 </v>
    <v name="usershift">      0.00000000       0.00000000       0.00000000 </v>
    <v name="genvec1">      0.08333333       0.00000000       0.00000000 </v>
    <v name="genvec2">      0.00000000       0.08333333      -0.00000000 </v>
    <v name="genvec3">     -0.00000000      -0.00000000       0.08333333 </v>
    <v name="shift">      0.00000000       0.00000000       0.00000000 </v>
   </generation>
   <varray name="kpointlist" >
    <v>       0.00000000       0.00000000       0.00000000 </v>
    <v>       0.08333333      -0.00000000      -0.00000000 </v>
    <v>       0.16666667       0.00000000      -0.00000000 </v>
    <v>       0.25000000      -0.00000000      -0.00000000 </v>
    <v>       0.33333333      -0.00000000      -0.00000000 </v>
    <v>       0.41666667      -0.00000000      -0.00000000 </v>
    <v>       0.50000000      -0.00000000      -0.00000000 </v>
    <v>       0.08333333       0.08333333      -0.00000000 </v>
    <v>       0.16666667       0.08333333      -0.00000000 </v>
    <v>       0.25000000       0.08333333      -0.00000000 </v>
    <v>       0.33333333       0.08333333      -0.00000000 </v>
    <v>       0.41666667       0.08333333      -0.00000000 </v>
    <v>       0.50000000       0.08333333      -0.00000000 </v>
    <v>      -0.41666667       0.08333333       0.00000000 </v>
    <v>      -0.33333333       0.08333333       0.00000000 </v>
    <v>      -0.25000000       0.08333333       0.00000000 </v>
    <v>      -0.16666667       0.08333333       0.00000000 </v>
    <v>      -0.08333333       0.08333333      -0.00000000 </v>
    <v>       0.16666667       0.16666667      -0.00000000 </v>
    <v>       0.25000000       0.16666667      -0.00000000 </v>
    <v>       0.33333333       0.16666667      -0.00000000 </v>
    <v>       0.41666667       0.16666667      -0.00000000 </v>
    <v>       0.50000000       0.16666667      -0.00000000 </v>
    <v>      -0.41666667       0.16666667      -0.00000000 </v>
    <v>      -0.33333333       0.16666667      -0.00000000 </v>
    <v>      -0.25000000       0.16666667       0.00000000 </v>
    <v>      -0.16666667       0.16666667      -0.00000000 </v>
    <v>       0.25000000       0.25000000      -0.00000000 </v>
    <v>       0.33333333       0.25000000      -0.00000000 </v>
    <v>       0.41666667       0.25000000      -0.00000000 </v>
    <v>       0.50000000       0.25000000      -0.00000000 </v>
    <v>      -0.41666667       0.25000000      -0.00000000 </v>
    <v>      -0.33333333       0.25000000      -0.00000000 </v>
    <v>      -0.25000000       0.25000000       0.00000000 </v>
    <v>       0.33333333       0.33333333      -0.00000000 </v>
    <v>       0.41666667       0.33333333      -0.00000000 </v>
    <v>       0.50000000       0.33333333      -0.00000000 </v>
    <v>      -0.41666667       0.33333333       0.00000000 </v>
    <v>      -0.33333333       0.33333333       0.00000000 </v>
    <v>       0.41666667       0.41666667      -0.00000000 </v>
    <v>       0.50000000       0.41666667      -0.00000000 </v>
    <v>      -0.41666667       0.41666667       0.00000000 </v>
    <v>       0.50000000       0.50000000      -0.00000000 </v>
    <v>       0.08333333      -0.00000000       0.08333333 </v>
    <v>       0.16666667       0.00000000       0.08333333 </v>
    <v>       0.25000000       0.00000000       0.08333333 </v>
    <v>       0.33333333       0.00000000       0.08333333 </v>
    <v>       0.41666667       0.00000000       0.08333333 </v>
    <v>       0.50000000      -0.00000000       0.08333333 </v>
    <v>      -0.41666667       0.00000000       0.08333333 </v>
    <v>      -0.33333333      -0.00000000       0.08333333 </v>
    <v>      -0.25000000       0.00000000       0.08333333 </v>
    <v>      -0.16666667       0.00000000       0.08333333 </v>
    <v>      -0.08333333       0.00000000       0.08333333 </v>
    <v>       0.25000000       0.16666667       0.08333333 </v>
    <v>       0.33333333       0.16666667       0.08333333 </v>
    <v>       0.41666667       0.16666667       0.08333333 </v>
    <v>       0.50000000       0.16666667       0.08333333 </v>
    <v>      -0.41666667       0.16666667       0.08333333 </v>
    <v>       0.16666667       0.25000000       0.08333333 </v>
    <v>       0.33333333       0.25000000       0.08333333 </v>
    <v>       0.41666667       0.25000000       0.08333333 </v>
    <v>       0.50000000       0.25000000       0.08333333 </v>
    <v>      -0.41666667       0.25000000       0.08333333 </v>
    <v>      -0.33333333       0.25000000       0.08333333 </v>
    <v>      -0.25000000       0.25000000       0.08333333 </v>
    <v>      -0.16666667       0.25000000       0.08333333 </v>
    <v>       0.16666667       0.33333333       0.08333333 </v>
    <v>       0.25000000       0.33333333       0.08333333 </v>
    <v>       0.41666667       0.33333333       0.08333333 </v>
    <v>       0.50000000       0.33333333       0.08333333 </v>
    <v>      -0.41666667       0.33333333       0.08333333 </v>
    <v>      -0.33333333       0.33333333       0.08333333 </v>
    <v>      -0.25000000       0.33333333       0.08333333 </v>
    <v>       0.16666667       0.41666667       0.08333333 </v>
    <v>       0.25000000       0.41666667       0.08333333 </v>
    <v>       0.33333333       0.41666667       0.08333333 </v>
    <v>       0.50000000       0.41666667       0.08333333 </v>
    <v>      -0.41666667       0.41666667       0.08333333 </v>
    <v>      -0.33333333       0.41666667       0.08333333 </v>
    <v>       0.16666667       0.50000000       0.08333333 </v>
    <v>       0.25000000       0.50000000       0.08333333 </v>
    <v>       0.33333333       0.50000000       0.08333333 </v>
    <v>       0.41666667       0.50000000       0.08333333 </v>
    <v>      -0.41666667       0.50000000       0.08333333 </v>
    <v>       0.16666667      -0.41666667       0.08333333 </v>
    <v>       0.25000000      -0.41666667       0.08333333 </v>
    <v>       0.33333333      -0.41666667       0.08333333 </v>
    <v>       0.41666667      -0.41666667       0.08333333 </v>
    <v>       0.50000000      -0.41666667       0.08333333 </v>
    <v>       0.16666667      -0.33333333       0.08333333 </v>
    <v>       0.25000000      -0.33333333       0.08333333 </v>
    <v>       0.33333333      -0.33333333       0.08333333 </v>
    <v>       0.41666667      -0.33333333       0.08333333 </v>
    <v>       0.16666667      -0.25000000       0.08333333 </v>
    <v>       0.25000000      -0.25000000       0.08333333 </v>
    <v>       0.33333333      -0.25000000       0.08333333 </v>
    <v>       0.16666667      -0.16666667       0.08333333 </v>
    <v>       0.25000000      -0.16666667       0.08333333 </v>
    <v>       0.16666667      -0.08333333       0.08333333 </v>
    <v>       0.16666667      -0.00000000       0.16666667 </v>
    <v>       0.25000000      -0.00000000       0.16666667 </v>
    <v>       0.33333333      -0.00000000       0.16666667 </v>
    <v>       0.41666667       0.00000000       0.16666667 </v>
    <v>       0.50000000      -0.00000000       0.16666667 </v>
    <v>      -0.41666667      -0.00000000       0.16666667 </v>
    <v>      -0.33333333       0.00000000       0.16666667 </v>
    <v>      -0.25000000       0.00000000       0.16666667 </v>
    <v>      -0.16666667      -0.00000000       0.16666667 </v>
    <v>       0.50000000       0.33333333       0.16666667 </v>
    <v>      -0.41666667       0.33333333       0.16666667 </v>
    <v>      -0.33333333       0.33333333       0.16666667 </v>
    <v>       0.25000000       0.41666667       0.16666667 </v>
    <v>      -0.41666667       0.41666667       0.16666667 </v>
    <v>      -0.33333333       0.41666667       0.16666667 </v>
    <v>      -0.25000000       0.41666667       0.16666667 </v>
    <v>       0.25000000       0.50000000       0.16666667 </v>
    <v>       0.33333333       0.50000000       0.16666667 </v>
    <v>      -0.33333333       0.50000000       0.16666667 </v>
    <v>       0.25000000      -0.41666667       0.16666667 </v>
    <v>       0.33333333      -0.41666667       0.16666667 </v>
    <v>       0.41666667      -0.41666667       0.16666667 </v>
    <v>       0.25000000      -0.33333333       0.16666667 </v>
    <v>       0.33333333      -0.33333333       0.16666667 </v>
    <v>       0.41666667      -0.33333333       0.16666667 </v>
    <v>       0.50000000      -0.33333333       0.16666667 </v>
    <v>       0.25000000      -0.25000000       0.16666667 </v>
    <v>       0.33333333      -0.25000000       0.16666667 </v>
    <v>       0.41666667      -0.25000000       0.16666667 </v>
    <v>       0.25000000      -0.16666667       0.16666667 </v>
    <v>       0.33333333      -0.16666667       0.16666667 </v>
    <v>       0.25000000      -0.08333333       0.16666667 </v>
    <v>       0.25000000      -0.00000000       0.25000000 </v>
    <v>       0.33333333      -0.00000000       0.25000000 </v>
    <v>       0.41666667      -0.00000000       0.25000000 </v>
    <v>       0.50000000      -0.00000000       0.25000000 </v>
    <v>      -0.41666667      -0.00000000       0.25000000 </v>
    <v>      -0.33333333       0.00000000       0.25000000 </v>
    <v>      -0.25000000       0.00000000       0.25000000 </v>
    <v>      -0.25000000       0.50000000       0.25000000 </v>
    <v>       0.33333333      -0.41666667       0.25000000 </v>
    <v>       0.33333333      -0.33333333       0.25000000 </v>
    <v>       0.41666667      -0.33333333       0.25000000 </v>
    <v>       0.33333333      -0.25000000       0.25000000 </v>
    <v>       0.41666667      -0.25000000       0.25000000 </v>
    <v>       0.50000000      -0.25000000       0.25000000 </v>
    <v>       0.33333333      -0.16666667       0.25000000 </v>
    <v>       0.41666667      -0.16666667       0.25000000 </v>
    <v>       0.33333333      -0.08333333       0.25000000 </v>
    <v>       0.33333333      -0.00000000       0.33333333 </v>
    <v>       0.41666667      -0.00000000       0.33333333 </v>
    <v>       0.50000000       0.00000000       0.33333333 </v>
    <v>      -0.41666667       0.00000000       0.33333333 </v>
    <v>      -0.33333333       0.00000000       0.33333333 </v>
    <v>       0.41666667      -0.25000000       0.33333333 </v>
    <v>       0.41666667      -0.16666667       0.33333333 </v>
    <v>       0.50000000      -0.16666667       0.33333333 </v>
    <v>       0.41666667      -0.08333333       0.33333333 </v>
    <v>       0.41666667      -0.00000000       0.41666667 </v>
    <v>       0.50000000      -0.00000000       0.41666667 </v>
    <v>      -0.41666667       0.00000000       0.41666667 </v>
    <v>       0.50000000      -0.08333333       0.41666667 </v>
    <v>       0.50000000      -0.00000000       0.50000000 </v>
   </varray>
   <varray name="weights" >
    <v>       0.00057870 </v>
    <v>       0.00462963 </v>
    <v>       0.00462963 </v>
    <v>       0.00462963 </v>
    <v>       0.00462963 </v>
    <v>       0.00462963 </v>
    <v>       0.00231481 </v>
    <v>       0.00231481 </v>
    <v>       0.00925926 </v>
    <v>       0.00925926 </v>
    <v>       0.00925926 </v>
    <v>       0.00925926 </v>
    <v>       0.00925926 </v>
    <v>       0.00925926 </v>
    <v>       0.00925926 </v>
    <v>       0.00925926 </v>
    <v>       0.00925926 </v>
    <v>       0.00462963 </v>
    <v>       0.00231481 </v>
    <v>       0.00925926 </v>
    <v>       0.00925926 </v>
    <v>       0.00925926 </v>
    <v>       0.00925926 </v>
    <v>       0.00925926 </v>
    <v>       0.00925926 </v>
    <v>       0.00925926 </v>
    <v>       0.00462963 </v>
    <v>       0.00231481 </v>
    <v>       0.00925926 </v>
    <v>       0.00925926 </v>
    <v>       0.00925926 </v>
    <v>       0.00925926 </v>
    <v>       0.00925926 </v>
    <v>       0.00462963 </v>
    <v>       0.00231481 </v>
    <v>       0.00925926 </v>
    <v>       0.00925926 </v>
    <v>       0.00925926 </v>
    <v>       0.00462963 </v>
    <v>       0.00231481 </v>
    <v>       0.00925926 </v>
    <v>       0.00462963 </v>
    <v>       0.00115741 </v>
    <v>       0.00115741 </v>
    <v>       0.00462963 </v>
    <v>       0.00462963 </v>
    <v>       0.00462963 </v>
    <v>       0.00462963 </v>
    <v>       0.00462963 </v>
    <v>       0.00462963 </v>
    <v>       0.00462963 </v>
    <v>       0.00462963 </v>
    <v>       0.00462963 </v>
    <v>       0.00231481 </v>
    <v>       0.00462963 </v>
    <v>       0.00925926 </v>
    <v>       0.00925926 </v>
    <v>       0.00925926 </v>
    <v>       0.00462963 </v>
    <v>       0.00462963 </v>
    <v>       0.00462963 </v>
    <v>       0.00925926 </v>
    <v>       0.00925926 </v>
    <v>       0.00925926 </v>
    <v>       0.00925926 </v>
    <v>       0.00925926 </v>
    <v>       0.00462963 </v>
    <v>       0.00925926 </v>
    <v>       0.00462963 </v>
    <v>       0.00462963 </v>
    <v>       0.00925926 </v>
    <v>       0.00925926 </v>
    <v>       0.00925926 </v>
    <v>       0.00462963 </v>
    <v>       0.00925926 </v>
    <v>       0.00925926 </v>
    <v>       0.00462963 </v>
    <v>       0.00462963 </v>
    <v>       0.00925926 </v>
    <v>       0.00462963 </v>
    <v>       0.00925926 </v>
    <v>       0.00925926 </v>
    <v>       0.00925926 </v>
    <v>       0.00462963 </v>
    <v>       0.00231481 </v>
    <v>       0.00925926 </v>
    <v>       0.00925926 </v>
    <v>       0.00925926 </v>
    <v>       0.00925926 </v>
    <v>       0.00231481 </v>
    <v>       0.00925926 </v>
    <v>       0.00925926 </v>
    <v>       0.00925926 </v>
    <v>       0.00462963 </v>
    <v>       0.00925926 </v>
    <v>       0.00925926 </v>
    <v>       0.00462963 </v>
    <v>       0.00925926 </v>
    <v>       0.00462963 </v>
    <v>       0.00462963 </v>
    <v>       0.00115741 </v>
    <v>       0.00462963 </v>
    <v>       0.00462963 </v>
    <v>       0.00462963 </v>
    <v>       0.00462963 </v>
    <v>       0.00462963 </v>
    <v>       0.00462963 </v>
    <v>       0.00462963 </v>
    <v>       0.00231481 </v>
    <v>       0.00462963 </v>
    <v>       0.00925926 </v>
    <v>       0.00462963 </v>
    <v>       0.00462963 </v>
    <v>       0.00462963 </v>
    <v>       0.00925926 </v>
    <v>       0.00462963 </v>
    <v>       0.00925926 </v>
    <v>       0.00462963 </v>
    <v>       0.00231481 </v>
    <v>       0.00925926 </v>
    <v>       0.00925926 </v>
    <v>       0.00462963 </v>
    <v>       0.00925926 </v>
    <v>       0.00925926 </v>
    <v>       0.00925926 </v>
    <v>       0.00231481 </v>
    <v>       0.00925926 </v>
    <v>       0.00925926 </v>
    <v>       0.00462963 </v>
    <v>       0.00925926 </v>
    <v>       0.00462963 </v>
    <v>       0.00462963 </v>
    <v>       0.00115741 </v>
    <v>       0.00462963 </v>
    <v>       0.00462963 </v>
    <v>       0.00462963 </v>
    <v>       0.00462963 </v>
    <v>       0.00462963 </v>
    <v>       0.00231481 </v>
    <v>       0.00115741 </v>
    <v>       0.00462963 </v>
    <v>       0.00925926 </v>
    <v>       0.00462963 </v>
    <v>       0.00925926 </v>
    <v>       0.00925926 </v>
    <v>       0.00231481 </v>
    <v>       0.00925926 </v>
    <v>       0.00462963 </v>
    <v>       0.00462963 </v>
    <v>       0.00115741 </v>
    <v>       0.00462963 </v>
    <v>       0.00462963 </v>
    <v>       0.00462963 </v>
    <v>       0.00231481 </v>
    <v>       0.00462963 </v>
    <v>       0.00925926 </v>
    <v>       0.00231481 </v>
    <v>       0.00462963 </v>
    <v>       0.00115741 </v>
    <v>       0.00462963 </v>
    <v>       0.00231481 </v>
    <v>       0.00231481 </v>
    <v>       0.00057870 </v>
   </varray>
  </kpoints>
  <scstep>
   <time name="total">    1.08    1.08</time>
   <energy>
    <i name="e_fr_energy">     -0.18851836 </i>
    <i name="e_wo_entrp">     -0.18851836 </i>
    <i name="e_0_energy">     -0.18851836 </i>
   </energy>
  </scstep>
  <scstep>
   <time name="total">    1.27    1.27</time>
   <energy>
    <i name="e_fr_energy">     -0.21395928 </i>
    <i name="e_wo_entrp">     -0.21395928 </i>
    <i name="e_0_energy">     -0.21395928 </i>
   </energy>
  </scstep>
  <scstep>
   <time name="total">    1.68    1.68</time>
   <energy>
    <i name="e_fr_energy">     -0.19035662 </i>
    <i name="e_wo_entrp">     -0.19035662 </i>
    <i name="e_0_energy">     -0.19035662 </i>
   </energy>
  </scstep>
  <scstep>
   <time name="total">    1.97    1.97</time>
   <energy>
    <i name="e_fr_energy">     -0.19741854 </i>
    <i name="e_wo_entrp">     -0.19741854 </i>
    <i name="e_0_energy">     -0.19741854 </i>
   </energy>
  </scstep>
  <scstep>
   <time name="total">    1.70    1.70</time>
   <energy>
    <i name="e_fr_energy">     -0.20803259 </i>
    <i name="e_wo_entrp">     -0.20803259 </i>
    <i name="e_0_energy">     -0.20803259 </i>
   </energy>
  </scstep>
  <scstep>
   <time name="total">    1.91    1.91</time>
   <energy>
    <i name="e_fr_energy">     -0.20794260 </i>
    <i name="e_wo_entrp">     -0.20794260 </i>
    <i name="e_0_energy">     -0.20794260 </i>
   </energy>
  </scstep>
  <scstep>
   <time name="total">    1.84    1.84</time>
   <energy>
    <i name="e_fr_energy">     -0.20841957 </i>
    <i name="e_wo_entrp">     -0.20841957 </i>
    <i name="e_0_energy">     -0.20841957 </i>
   </energy>
  </scstep>
  <scstep>
   <time name="total">    1.89    1.89</time>
   <energy>
    <i name="e_fr_energy">     -0.20849554 </i>
    <i name="e_wo_entrp">     -0.20849554 </i>
    <i name="e_0_energy">     -0.20849554 </i>
   </energy>
  </scstep>
  <scstep>
   <time name="total">    1.85    1.85</time>
   <energy>
    <i name="e_fr_energy">     -0.20855310 </i>
    <i name="e_wo_entrp">     -0.20855310 </i>
    <i name="e_0_energy">     -0.20855310 </i>
   </energy>
  </scstep>
  <scstep>
   <time name="total">    1.83    1.83</time>
   <energy>
    <i name="e_fr_energy">     -0.20857570 </i>
    <i name="e_wo_entrp">     -0.20857570 </i>
    <i name="e_0_energy">     -0.20857570 </i>
   </energy>
  </scstep>
  <scstep>
   <time name="total">    1.95    1.95</time>
   <energy>
    <i name="e_fr_energy">     -0.20857691 </i>
    <i name="e_wo_entrp">     -0.20857691 </i>
    <i name="e_0_energy">     -0.20857691 </i>
   </energy>
  </scstep>
  <scstep>
   <time name="total">    1.91    1.91</time>
   <energy>
    <i name="e_fr_energy">     -0.20857518 </i>
    <i name="e_wo_entrp">     -0.20857518 </i>
    <i name="e_0_energy">     -0.20857518 </i>
   </energy>
  </scstep>
  <scstep>
   <time name="total">    1.60    1.60</time>
   <energy>
    <i name="e_fr_energy">     -0.20857489 </i>
    <i name="e_wo_entrp">     -0.20857489 </i>
    <i name="e_0_energy">     -0.20857489 </i>
   </energy>
  </scstep>
  <scstep>
   <time name="total">    1.43    1.43</time>
   <energy>
    <i name="e_fr_energy">     -0.20857469 </i>
    <i name="e_wo_entrp">     -0.20857469 </i>
    <i name="e_0_energy">     -0.20857469 </i>
   </energy>
  </scstep>
  <kpoints>
   <generation param="Gamma">
    <v type="int" name="divisions">      12       12       12 </v>
    <v name="usershift">      0.00000000       0.00000000       0.00000000 </v>
    <v name="genvec1">      0.08333333       0.00000000       0.00000000 </v>
    <v name="genvec2">      0.00000000       0.08333333      -0.00000000 </v>
    <v name="genvec3">     -0.00000000      -0.00000000       0.08333333 </v>
    <v name="shift">      0.00000000       0.00000000       0.00000000 </v>
   </generation>
   <varray name="kpointlist" >
    <v>       0.00000000       0.00000000       0.00000000 </v>
    <v>       0.08333333      -0.00000000      -0.00000000 </v>
    <v>       0.16666667       0.00000000      -0.00000000 </v>
    <v>       0.25000000      -0.00000000      -0.00000000 </v>
    <v>       0.33333333      -0.00000000      -0.00000000 </v>
    <v>       0.41666667      -0.00000000      -0.00000000 </v>
    <v>       0.50000000      -0.00000000      -0.00000000 </v>
    <v>       0.08333333       0.08333333      -0.00000000 </v>
    <v>       0.16666667       0.08333333      -0.00000000 </v>
    <v>       0.25000000       0.08333333      -0.00000000 </v>
    <v>       0.33333333       0.08333333      -0.00000000 </v>
    <v>       0.41666667       0.08333333      -0.00000000 </v>
    <v>       0.50000000       0.08333333      -0.00000000 </v>
    <v>      -0.41666667       0.08333333       0.00000000 </v>
    <v>      -0.33333333       0.08333333       0.00000000 </v>
    <v>      -0.25000000       0.08333333       0.00000000 </v>
    <v>      -0.16666667       0.08333333       0.00000000 </v>
    <v>      -0.08333333       0.08333333      -0.00000000 </v>
    <v>       0.16666667       0.16666667      -0.00000000 </v>
    <v>       0.25000000       0.16666667      -0.00000000 </v>
    <v>       0.33333333       0.16666667      -0.00000000 </v>
    <v>       0.41666667       0.16666667      -0.00000000 </v>
    <v>       0.50000000       0.16666667      -0.00000000 </v>
    <v>      -0.41666667       0.16666667      -0.00000000 </v>
    <v>      -0.33333333       0.16666667      -0.00000000 </v>
    <v>      -0.25000000       0.16666667       0.00000000 </v>
    <v>      -0.16666667       0.16666667      -0.00000000 </v>
    <v>       0.25000000       0.25000000      -0.00000000 </v>
    <v>       0.33333333       0.25000000      -0.00000000 </v>
    <v>       0.41666667       0.25000000      -0.00000000 </v>
    <v>       0.50000000       0.25000000      -0.00000000 </v>
    <v>      -0.41666667       0.25000000      -0.00000000 </v>
    <v>      -0.33333333       0.25000000      -0.00000000 </v>
    <v>      -0.25000000       0.25000000       0.00000000 </v>
    <v>       0.33333333       0.33333333      -0.00000000 </v>
    <v>       0.41666667       0.33333333      -0.00000000 </v>
    <v>       0.50000000       0.33333333      -0.00000000 </v>
    <v>      -0.41666667       0.33333333       0.00000000 </v>
    <v>      -0.33333333       0.33333333       0.00000000 </v>
    <v>       0.41666667       0.41666667      -0.00000000 </v>
    <v>       0.50000000       0.41666667      -0.00000000 </v>
    <v>      -0.41666667       0.41666667       0.00000000 </v>
    <v>       0.50000000       0.50000000      -0.00000000 </v>
    <v>       0.00000000       0.00000000       0.08333333 </v>
    <v>       0.08333333      -0.00000000       0.08333333 </v>
    <v>       0.16666667       0.00000000       0.08333333 </v>
    <v>       0.25000000       0.00000000       0.08333333 </v>
    <v>       0.33333333       0.00000000       0.08333333 </v>
    <v>       0.41666667       0.00000000       0.08333333 </v>
    <v>       0.50000000      -0.00000000       0.08333333 </v>
    <v>      -0.41666667       0.00000000       0.08333333 </v>
    <v>      -0.33333333      -0.00000000       0.08333333 </v>
    <v>      -0.25000000       0.00000000       0.08333333 </v>
    <v>      -0.16666667       0.00000000       0.08333333 </v>
    <v>      -0.08333333       0.00000000       0.08333333 </v>
    <v>      -0.00000000       0.08333333       0.08333333 </v>
    <v>       0.16666667       0.08333333       0.08333333 </v>
    <v>       0.25000000       0.08333333       0.08333333 </v>
    <v>       0.33333333       0.08333333       0.08333333 </v>
    <v>       0.41666667       0.08333333       0.08333333 </v>
    <v>       0.50000000       0.08333333       0.08333333 </v>
    <v>      -0.41666667       0.08333333       0.08333333 </v>
    <v>      -0.33333333       0.08333333       0.08333333 </v>
    <v>      -0.25000000       0.08333333       0.08333333 </v>
    <v>      -0.16666667       0.08333333       0.08333333 </v>
    <v>      -0.08333333       0.08333333       0.08333333 </v>
    <v>       0.16666667       0.16666667       0.08333333 </v>
    <v>       0.25000000       0.16666667       0.08333333 </v>
    <v>       0.33333333       0.16666667       0.08333333 </v>
    <v>       0.41666667       0.16666667       0.08333333 </v>
    <v>       0.50000000       0.16666667       0.08333333 </v>
    <v>      -0.41666667       0.16666667       0.08333333 </v>
    <v>      -0.33333333       0.16666667       0.08333333 </v>
    <v>      -0.25000000       0.16666667       0.08333333 </v>
    <v>      -0.16666667       0.16666667       0.08333333 </v>
    <v>      -0.08333333       0.16666667       0.08333333 </v>
    <v>       0.16666667       0.25000000       0.08333333 </v>
    <v>       0.25000000       0.25000000       0.08333333 </v>
    <v>       0.33333333       0.25000000       0.08333333 </v>
    <v>       0.41666667       0.25000000       0.08333333 </v>
    <v>       0.50000000       0.25000000       0.08333333 </v>
    <v>      -0.41666667       0.25000000       0.08333333 </v>
    <v>      -0.33333333       0.25000000       0.08333333 </v>
    <v>      -0.25000000       0.25000000       0.08333333 </v>
    <v>      -0.16666667       0.25000000       0.08333333 </v>
    <v>       0.16666667       0.33333333       0.08333333 </v>
    <v>       0.25000000       0.33333333       0.08333333 </v>
    <v>       0.33333333       0.33333333       0.08333333 </v>
    <v>       0.41666667       0.33333333       0.08333333 </v>
    <v>       0.50000000       0.33333333       0.08333333 </v>
    <v>      -0.41666667       0.33333333       0.08333333 </v>
    <v>      -0.33333333       0.33333333       0.08333333 </v>
    <v>      -0.25000000       0.33333333       0.08333333 </v>
    <v>       0.16666667       0.41666667       0.08333333 </v>
    <v>       0.25000000       0.41666667       0.08333333 </v>
    <v>       0.33333333       0.41666667       0.08333333 </v>
    <v>       0.41666667       0.41666667       0.08333333 </v>
    <v>       0.50000000       0.41666667       0.08333333 </v>
    <v>      -0.41666667       0.41666667       0.08333333 </v>
    <v>      -0.33333333       0.41666667       0.08333333 </v>
    <v>       0.16666667       0.50000000       0.08333333 </v>
    <v>       0.25000000       0.50000000       0.08333333 </v>
    <v>       0.33333333       0.50000000       0.08333333 </v>
    <v>       0.41666667       0.50000000       0.08333333 </v>
    <v>       0.50000000       0.50000000       0.08333333 </v>
    <v>      -0.41666667       0.50000000       0.08333333 </v>
    <v>       0.16666667      -0.41666667       0.08333333 </v>
    <v>       0.25000000      -0.41666667       0.08333333 </v>
    <v>       0.33333333      -0.41666667       0.08333333 </v>
    <v>       0.41666667      -0.41666667       0.08333333 </v>
    <v>       0.50000000      -0.41666667       0.08333333 </v>
    <v>       0.16666667      -0.33333333       0.08333333 </v>
    <v>       0.25000000      -0.33333333       0.08333333 </v>
    <v>       0.33333333      -0.33333333       0.08333333 </v>
    <v>       0.41666667      -0.33333333       0.08333333 </v>
    <v>       0.16666667      -0.25000000       0.08333333 </v>
    <v>       0.25000000      -0.25000000       0.08333333 </v>
    <v>       0.33333333      -0.25000000       0.08333333 </v>
    <v>       0.16666667      -0.16666667       0.08333333 </v>
    <v>       0.25000000      -0.16666667       0.08333333 </v>
    <v>       0.16666667      -0.08333333       0.08333333 </v>
    <v>      -0.00000000      -0.00000000       0.16666667 </v>
    <v>       0.08333333       0.00000000       0.16666667 </v>
    <v>       0.16666667      -0.00000000       0.16666667 </v>
    <v>       0.25000000      -0.00000000       0.16666667 </v>
    <v>       0.33333333      -0.00000000       0.16666667 </v>
    <v>       0.41666667       0.00000000       0.16666667 </v>
    <v>       0.50000000      -0.00000000       0.16666667 </v>
    <v>      -0.41666667      -0.00000000       0.16666667 </v>
    <v>      -0.33333333       0.00000000       0.16666667 </v>
    <v>      -0.25000000       0.00000000       0.16666667 </v>
    <v>      -0.16666667      -0.00000000       0.16666667 </v>
    <v>      -0.08333333      -0.00000000       0.16666667 </v>
    <v>      -0.00000000       0.08333333       0.16666667 </v>
    <v>       0.08333333       0.08333333       0.16666667 </v>
    <v>       0.25000000       0.08333333       0.16666667 </v>
    <v>       0.33333333       0.08333333       0.16666667 </v>
    <v>       0.41666667       0.08333333       0.16666667 </v>
    <v>       0.50000000       0.08333333       0.16666667 </v>
    <v>      -0.41666667       0.08333333       0.16666667 </v>
    <v>      -0.33333333       0.08333333       0.16666667 </v>
    <v>      -0.25000000       0.08333333       0.16666667 </v>
    <v>      -0.16666667       0.08333333       0.16666667 </v>
    <v>      -0.08333333       0.08333333       0.16666667 </v>
    <v>      -0.00000000       0.16666667       0.16666667 </v>
    <v>       0.25000000       0.16666667       0.16666667 </v>
    <v>       0.33333333       0.16666667       0.16666667 </v>
    <v>       0.41666667       0.16666667       0.16666667 </v>
    <v>       0.50000000       0.16666667       0.16666667 </v>
    <v>      -0.41666667       0.16666667       0.16666667 </v>
    <v>      -0.33333333       0.16666667       0.16666667 </v>
    <v>      -0.25000000       0.16666667       0.16666667 </v>
    <v>      -0.16666667       0.16666667       0.16666667 </v>
    <v>      -0.08333333       0.16666667       0.16666667 </v>
    <v>       0.25000000       0.25000000       0.16666667 </v>
    <v>       0.33333333       0.25000000       0.16666667 </v>
    <v>       0.41666667       0.25000000       0.16666667 </v>
    <v>       0.50000000       0.25000000       0.16666667 </v>
    <v>      -0.41666667       0.25000000       0.16666667 </v>
    <v>      -0.33333333       0.25000000       0.16666667 </v>
    <v>      -0.25000000       0.25000000       0.16666667 </v>
    <v>      -0.16666667       0.25000000       0.16666667 </v>
    <v>      -0.08333333       0.25000000       0.16666667 </v>
    <v>       0.25000000       0.33333333       0.16666667 </v>
    <v>       0.33333333       0.33333333       0.16666667 </v>
    <v>       0.41666667       0.33333333       0.16666667 </v>
    <v>       0.50000000       0.33333333       0.16666667 </v>
    <v>      -0.41666667       0.33333333       0.16666667 </v>
    <v>      -0.33333333       0.33333333       0.16666667 </v>
    <v>      -0.25000000       0.33333333       0.16666667 </v>
    <v>      -0.16666667       0.33333333       0.16666667 </v>
    <v>       0.25000000       0.41666667       0.16666667 </v>
    <v>       0.33333333       0.41666667       0.16666667 </v>
    <v>       0.41666667       0.41666667       0.16666667 </v>
    <v>       0.50000000       0.41666667       0.16666667 </v>
    <v>      -0.41666667       0.41666667       0.16666667 </v>
    <v>      -0.33333333       0.41666667       0.16666667 </v>
    <v>      -0.25000000       0.41666667       0.16666667 </v>
    <v>       0.25000000       0.50000000       0.16666667 </v>
    <v>       0.33333333       0.50000000       0.16666667 </v>
    <v>       0.41666667       0.50000000       0.16666667 </v>
    <v>       0.50000000       0.50000000       0.16666667 </v>
    <v>      -0.41666667       0.50000000       0.16666667 </v>
    <v>      -0.33333333       0.50000000       0.16666667 </v>
    <v>       0.25000000      -0.41666667       0.16666667 </v>
    <v>       0.33333333      -0.41666667       0.16666667 </v>
    <v>       0.41666667      -0.41666667       0.16666667 </v>
    <v>       0.50000000      -0.41666667       0.16666667 </v>
    <v>      -0.41666667      -0.41666667       0.16666667 </v>
    <v>       0.25000000      -0.33333333       0.16666667 </v>
    <v>       0.33333333      -0.33333333       0.16666667 </v>
    <v>       0.41666667      -0.33333333       0.16666667 </v>
    <v>       0.50000000      -0.33333333       0.16666667 </v>
    <v>       0.25000000      -0.25000000       0.16666667 </v>
    <v>       0.33333333      -0.25000000       0.16666667 </v>
    <v>       0.41666667      -0.25000000       0.16666667 </v>
    <v>       0.25000000      -0.16666667       0.16666667 </v>
    <v>       0.33333333      -0.16666667       0.16666667 </v>
    <v>       0.25000000      -0.08333333       0.16666667 </v>
    <v>       0.00000000       0.00000000       0.25000000 </v>
    <v>       0.08333333       0.00000000       0.25000000 </v>
    <v>       0.16666667       0.00000000       0.25000000 </v>
    <v>       0.25000000      -0.00000000       0.25000000 </v>
    <v>       0.33333333      -0.00000000       0.25000000 </v>
    <v>       0.41666667      -0.00000000       0.25000000 </v>
    <v>       0.50000000      -0.00000000       0.25000000 </v>
    <v>      -0.41666667      -0.00000000       0.25000000 </v>
    <v>      -0.33333333       0.00000000       0.25000000 </v>
    <v>      -0.25000000       0.00000000       0.25000000 </v>
    <v>      -0.16666667       0.00000000       0.25000000 </v>
    <v>      -0.08333333      -0.00000000       0.25000000 </v>
    <v>      -0.00000000       0.08333333       0.25000000 </v>
    <v>       0.08333333       0.08333333       0.25000000 </v>
    <v>       0.16666667       0.08333333       0.25000000 </v>
    <v>       0.33333333       0.08333333       0.25000000 </v>
    <v>       0.41666667       0.08333333       0.25000000 </v>
    <v>       0.50000000       0.08333333       0.25000000 </v>
    <v>      -0.41666667       0.08333333       0.25000000 </v>
    <v>      -0.33333333       0.08333333       0.25000000 </v>
    <v>      -0.25000000       0.08333333       0.25000000 </v>
    <v>      -0.16666667       0.08333333       0.25000000 </v>
    <v>      -0.08333333       0.08333333       0.25000000 </v>
    <v>      -0.00000000       0.16666667       0.25000000 </v>
    <v>       0.08333333       0.16666667       0.25000000 </v>
    <v>       0.33333333       0.16666667       0.25000000 </v>
    <v>       0.41666667       0.16666667       0.25000000 </v>
    <v>       0.50000000       0.16666667       0.25000000 </v>
    <v>      -0.41666667       0.16666667       0.25000000 </v>
    <v>      -0.33333333       0.16666667       0.25000000 </v>
    <v>      -0.25000000       0.16666667       0.25000000 </v>
    <v>      -0.16666667       0.16666667       0.25000000 </v>
    <v>      -0.08333333       0.16666667       0.25000000 </v>
    <v>      -0.00000000       0.25000000       0.25000000 </v>
    <v>       0.33333333       0.25000000       0.25000000 </v>
    <v>       0.41666667       0.25000000       0.25000000 </v>
    <v>       0.50000000       0.25000000       0.25000000 </v>
    <v>      -0.41666667       0.25000000       0.25000000 </v>
    <v>      -0.33333333       0.25000000       0.25000000 </v>
    <v>      -0.25000000       0.25000000       0.25000000 </v>
    <v>      -0.16666667       0.25000000       0.25000000 </v>
    <v>      -0.08333333       0.25000000       0.25000000 </v>
    <v>       0.33333333       0.33333333       0.25000000 </v>
    <v>       0.41666667       0.33333333       0.25000000 </v>
    <v>       0.50000000       0.33333333       0.25000000 </v>
    <v>      -0.41666667       0.33333333       0.25000000 </v>
    <v>      -0.33333333       0.33333333       0.25000000 </v>
    <v>      -0.25000000       0.33333333       0.25000000 </v>
    <v>      -0.16666667       0.33333333       0.25000000 </v>
    <v>      -0.08333333       0.33333333       0.25000000 </v>
    <v>       0.33333333       0.41666667       0.25000000 </v>
    <v>       0.41666667       0.41666667       0.25000000 </v>
    <v>       0.50000000       0.41666667       0.25000000 </v>
    <v>      -0.41666667       0.41666667       0.25000000 </v>
    <v>      -0.33333333       0.41666667       0.25000000 </v>
    <v>      -0.25000000       0.41666667       0.25000000 </v>
    <v>      -0.16666667       0.41666667       0.25000000 </v>
    <v>       0.33333333       0.50000000       0.25000000 </v>
    <v>       0.41666667       0.50000000       0.25000000 </v>
    <v>       0.50000000       0.50000000       0.25000000 </v>
    <v>      -0.41666667       0.50000000       0.25000000 </v>
    <v>      -0.33333333       0.50000000       0.25000000 </v>
    <v>      -0.25000000       0.50000000       0.25000000 </v>
    <v>       0.33333333      -0.41666667       0.25000000 </v>
    <v>       0.41666667      -0.41666667       0.25000000 </v>
    <v>       0.50000000      -0.41666667       0.25000000 </v>
    <v>      -0.41666667      -0.41666667       0.25000000 </v>
    <v>      -0.33333333      -0.41666667       0.25000000 </v>
    <v>       0.33333333      -0.33333333       0.25000000 </v>
    <v>       0.41666667      -0.33333333       0.25000000 </v>
    <v>       0.50000000      -0.33333333       0.25000000 </v>
    <v>      -0.41666667      -0.33333333       0.25000000 </v>
    <v>       0.33333333      -0.25000000       0.25000000 </v>
    <v>       0.41666667      -0.25000000       0.25000000 </v>
    <v>       0.50000000      -0.25000000       0.25000000 </v>
    <v>       0.33333333      -0.16666667       0.25000000 </v>
    <v>       0.41666667      -0.16666667       0.25000000 </v>
    <v>       0.33333333      -0.08333333       0.25000000 </v>
    <v>       0.00000000       0.00000000       0.33333333 </v>
    <v>       0.08333333       0.00000000       0.33333333 </v>
    <v>       0.16666667       0.00000000       0.33333333 </v>
    <v>       0.25000000      -0.00000000       0.33333333 </v>
    <v>       0.33333333      -0.00000000       0.33333333 </v>
    <v>       0.41666667      -0.00000000       0.33333333 </v>
    <v>       0.50000000       0.00000000       0.33333333 </v>
    <v>      -0.41666667       0.00000000       0.33333333 </v>
    <v>      -0.33333333       0.00000000       0.33333333 </v>
    <v>      -0.25000000      -0.00000000       0.33333333 </v>
[...]
       <r>   14.8632    0.0000 </r>
       <r>   15.8490    0.0000 </r>
       <r>   15.9537    0.0000 </r>
       <r>   16.6286    0.0000 </r>
       <r>   18.7209    0.0000 </r>
      </set>
      <set comment="kpoint 158">
       <r>  -21.3558    1.0000 </r>
       <r>  -21.3437    1.0000 </r>
       <r>  -21.3430    1.0000 </r>
       <r>  -12.8940    1.0000 </r>
       <r>   -2.1979    1.0000 </r>
       <r>   -1.2442    1.0000 </r>
       <r>   -1.1804    1.0000 </r>
       <r>    7.3919    0.0000 </r>
       <r>    7.8320    0.0000 </r>
       <r>   10.3236    0.0000 </r>
       <r>   12.9683    0.0000 </r>
       <r>   13.9523    0.0000 </r>
       <r>   15.4462    0.0000 </r>
       <r>   16.4741    0.0000 </r>
       <r>   17.3192    0.0000 </r>
       <r>   18.2903    0.0000 </r>
      </set>
      <set comment="kpoint 159">
       <r>  -21.3561    1.0000 </r>
       <r>  -21.3428    1.0000 </r>
       <r>  -21.3428    1.0000 </r>
       <r>  -12.9008    1.0000 </r>
       <r>   -2.2352    1.0000 </r>
       <r>   -1.1537    1.0000 </r>
       <r>   -1.1537    1.0000 </r>
       <r>    7.1449    0.0000 </r>
       <r>    7.6085    0.0000 </r>
       <r>   10.5888    0.0000 </r>
       <r>   13.8717    0.0000 </r>
       <r>   13.8717    0.0000 </r>
       <r>   14.6093    0.0000 </r>
       <r>   17.2951    0.0000 </r>
       <r>   17.2951    0.0000 </r>
       <r>   17.4938    0.0000 </r>
      </set>
      <set comment="kpoint 160">
       <r>  -21.3564    1.0000 </r>
       <r>  -21.3443    1.0000 </r>
       <r>  -21.3430    1.0000 </r>
       <r>  -12.8797    1.0000 </r>
       <r>   -2.2567    1.0000 </r>
       <r>   -1.2597    1.0000 </r>
       <r>   -1.1694    1.0000 </r>
       <r>    7.1929    0.0000 </r>
       <r>    7.6422    0.0000 </r>
       <r>   10.7253    0.0000 </r>
       <r>   13.6268    0.0000 </r>
       <r>   14.0805    0.0000 </r>
       <r>   15.4740    0.0000 </r>
       <r>   16.6145    0.0000 </r>
       <r>   16.6778    0.0000 </r>
       <r>   17.4658    0.0000 </r>
      </set>
      <set comment="kpoint 161">
       <r>  -21.3551    1.0000 </r>
       <r>  -21.3474    1.0000 </r>
       <r>  -21.3423    1.0000 </r>
       <r>  -12.8685    1.0000 </r>
       <r>   -2.1797    1.0000 </r>
       <r>   -1.4797    1.0000 </r>
       <r>   -1.1427    1.0000 </r>
       <r>    7.4207    0.0000 </r>
       <r>    8.0123    0.0000 </r>
       <r>   10.5256    0.0000 </r>
       <r>   12.9838    0.0000 </r>
       <r>   13.5855    0.0000 </r>
       <r>   15.8070    0.0000 </r>
       <r>   16.6835    0.0000 </r>
       <r>   17.1271    0.0000 </r>
       <r>   17.6542    0.0000 </r>
      </set>
      <set comment="kpoint 162">
       <r>  -21.3560    1.0000 </r>
       <r>  -21.3443    1.0000 </r>
       <r>  -21.3440    1.0000 </r>
       <r>  -12.8714    1.0000 </r>
       <r>   -2.2393    1.0000 </r>
       <r>   -1.2837    1.0000 </r>
       <r>   -1.2336    1.0000 </r>
       <r>    7.2971    0.0000 </r>
       <r>    7.7207    0.0000 </r>
       <r>   10.7124    0.0000 </r>
       <r>   13.0964    0.0000 </r>
       <r>   14.5603    0.0000 </r>
       <r>   15.5838    0.0000 </r>
       <r>   16.4250    0.0000 </r>
       <r>   16.5974    0.0000 </r>
       <r>   17.4915    0.0000 </r>
      </set>
      <set comment="kpoint 163">
       <r>  -21.3570    1.0000 </r>
       <r>  -21.3434    1.0000 </r>
       <r>  -21.3434    1.0000 </r>
       <r>  -12.8762    1.0000 </r>
       <r>   -2.3000    1.0000 </r>
       <r>   -1.1907    1.0000 </r>
       <r>   -1.1907    1.0000 </r>
       <r>    7.0490    0.0000 </r>
       <r>    7.4871    0.0000 </r>
       <r>   10.9511    0.0000 </r>
       <r>   14.4597    0.0000 </r>
       <r>   14.4597    0.0000 </r>
       <r>   14.8115    0.0000 </r>
       <r>   16.5821    0.0000 </r>
       <r>   16.5821    0.0000 </r>
       <r>   16.8365    0.0000 </r>
      </set>
     </set>
    </set>
   </array>
  </eigenvalues>
  <separator name="orbital magnetization" >
   <v name="MAGDIPOLOUT">      0.00000000      0.00000000      0.00000000</v>
  </separator>
  <dos>
   <i name="efermi">     -0.42173721 </i>
   <total>
    <array>
     <dimension dim="1">gridpoints</dimension>
     <dimension dim="2">spin</dimension>
     <field>energy</field>
     <field>total</field>
     <field>integrated</field>
     <set>
      <set comment="spin 1">
       <r>   -23.4282     0.0000     0.0000 </r>
       <r>   -23.2771     0.0000     0.0000 </r>
       <r>   -23.1260     0.0000     0.0000 </r>
       <r>   -22.9749     0.0000     0.0000 </r>
       <r>   -22.8237     0.0000     0.0000 </r>
       <r>   -22.6726     0.0000     0.0000 </r>
       <r>   -22.5215     0.0000     0.0000 </r>
       <r>   -22.3704     0.0000     0.0000 </r>
       <r>   -22.2193     0.0000     0.0000 </r>
       <r>   -22.0682     0.0000     0.0000 </r>
       <r>   -21.9171     0.0000     0.0000 </r>
       <r>   -21.7660     0.0000     0.0000 </r>
       <r>   -21.6149     0.0000     0.0000 </r>
       <r>   -21.4638     0.0000     0.0000 </r>
       <r>   -21.3126    39.7023     5.9994 </r>
       <r>   -21.1615     0.0000     6.0000 </r>
       <r>   -21.0104     0.0000     6.0000 </r>
       <r>   -20.8593     0.0000     6.0000 </r>
       <r>   -20.7082     0.0000     6.0000 </r>
       <r>   -20.5571     0.0000     6.0000 </r>
       <r>   -20.4060     0.0000     6.0000 </r>
       <r>   -20.2549     0.0000     6.0000 </r>
       <r>   -20.1038     0.0000     6.0000 </r>
       <r>   -19.9527     0.0000     6.0000 </r>
       <r>   -19.8016     0.0000     6.0000 </r>
       <r>   -19.6504     0.0000     6.0000 </r>
       <r>   -19.4993     0.0000     6.0000 </r>
       <r>   -19.3482     0.0000     6.0000 </r>
       <r>   -19.1971     0.0000     6.0000 </r>
       <r>   -19.0460     0.0000     6.0000 </r>
       <r>   -18.8949     0.0000     6.0000 </r>
       <r>   -18.7438     0.0000     6.0000 </r>
       <r>   -18.5927     0.0000     6.0000 </r>
       <r>   -18.4416     0.0000     6.0000 </r>
       <r>   -18.2905     0.0000     6.0000 </r>
       <r>   -18.1393     0.0000     6.0000 </r>
       <r>   -17.9882     0.0000     6.0000 </r>
       <r>   -17.8371     0.0000     6.0000 </r>
       <r>   -17.6860     0.0000     6.0000 </r>
       <r>   -17.5349     0.0000     6.0000 </r>
       <r>   -17.3838     0.0000     6.0000 </r>
       <r>   -17.2327     0.0000     6.0000 </r>
       <r>   -17.0816     0.0000     6.0000 </r>
       <r>   -16.9305     0.0000     6.0000 </r>
       <r>   -16.7794     0.0000     6.0000 </r>
       <r>   -16.6282     0.0000     6.0000 </r>
       <r>   -16.4771     0.0000     6.0000 </r>
       <r>   -16.3260     0.0000     6.0000 </r>
       <r>   -16.1749     0.0000     6.0000 </r>
       <r>   -16.0238     0.0000     6.0000 </r>
       <r>   -15.8727     0.0000     6.0000 </r>
       <r>   -15.7216     0.0000     6.0000 </r>
       <r>   -15.5705     0.0000     6.0000 </r>
       <r>   -15.4194     0.0000     6.0000 </r>
       <r>   -15.2683     0.0000     6.0000 </r>
       <r>   -15.1172     0.0000     6.0000 </r>
       <r>   -14.9660     0.0000     6.0000 </r>
       <r>   -14.8149     0.0000     6.0000 </r>
       <r>   -14.6638     0.0000     6.0000 </r>
       <r>   -14.5127     0.0000     6.0000 </r>
       <r>   -14.3616     0.0000     6.0000 </r>
       <r>   -14.2105     0.0000     6.0000 </r>
       <r>   -14.0594     0.0000     6.0000 </r>
       <r>   -13.9083     0.0000     6.0000 </r>
       <r>   -13.7572     0.0000     6.0000 </r>
       <r>   -13.6061     0.0000     6.0000 </r>
       <r>   -13.4549     0.0000     6.0000 </r>
       <r>   -13.3038     0.0003     6.0000 </r>
       <r>   -13.1527     0.6373     6.1137 </r>
       <r>   -13.0016     1.6859     6.4642 </r>
       <r>   -12.8505     7.2779     7.9944 </r>
       <r>   -12.6994     0.0000     8.0000 </r>
       <r>   -12.5483     0.0000     8.0000 </r>
       <r>   -12.3972     0.0000     8.0000 </r>
       <r>   -12.2461     0.0000     8.0000 </r>
       <r>   -12.0950     0.0000     8.0000 </r>
       <r>   -11.9438     0.0000     8.0000 </r>
       <r>   -11.7927     0.0000     8.0000 </r>
       <r>   -11.6416     0.0000     8.0000 </r>
       <r>   -11.4905     0.0000     8.0000 </r>
       <r>   -11.3394     0.0000     8.0000 </r>
       <r>   -11.1883     0.0000     8.0000 </r>
       <r>   -11.0372     0.0000     8.0000 </r>
       <r>   -10.8861     0.0000     8.0000 </r>
       <r>   -10.7350     0.0000     8.0000 </r>
       <r>   -10.5839     0.0000     8.0000 </r>
       <r>   -10.4328     0.0000     8.0000 </r>
       <r>   -10.2816     0.0000     8.0000 </r>
       <r>   -10.1305     0.0000     8.0000 </r>
       <r>    -9.9794     0.0000     8.0000 </r>
       <r>    -9.8283     0.0000     8.0000 </r>
       <r>    -9.6772     0.0000     8.0000 </r>
       <r>    -9.5261     0.0000     8.0000 </r>
       <r>    -9.3750     0.0000     8.0000 </r>
       <r>    -9.2239     0.0000     8.0000 </r>
       <r>    -9.0728     0.0000     8.0000 </r>
       <r>    -8.9217     0.0000     8.0000 </r>
       <r>    -8.7705     0.0000     8.0000 </r>
       <r>    -8.6194     0.0000     8.0000 </r>
       <r>    -8.4683     0.0000     8.0000 </r>
       <r>    -8.3172     0.0000     8.0000 </r>
       <r>    -8.1661     0.0000     8.0000 </r>
       <r>    -8.0150     0.0000     8.0000 </r>
       <r>    -7.8639     0.0000     8.0000 </r>
       <r>    -7.7128     0.0000     8.0000 </r>
       <r>    -7.5617     0.0000     8.0000 </r>
       <r>    -7.4106     0.0000     8.0000 </r>
       <r>    -7.2594     0.0000     8.0000 </r>
       <r>    -7.1083     0.0000     8.0000 </r>
       <r>    -6.9572     0.0000     8.0000 </r>
       <r>    -6.8061     0.0000     8.0000 </r>
       <r>    -6.6550     0.0000     8.0000 </r>
       <r>    -6.5039     0.0000     8.0000 </r>
       <r>    -6.3528     0.0000     8.0000 </r>
       <r>    -6.2017     0.0000     8.0000 </r>
       <r>    -6.0506     0.0000     8.0000 </r>
       <r>    -5.8995     0.0000     8.0000 </r>
       <r>    -5.7484     0.0000     8.0000 </r>
       <r>    -5.5972     0.0000     8.0000 </r>
       <r>    -5.4461     0.0000     8.0000 </r>
       <r>    -5.2950     0.0000     8.0000 </r>
       <r>    -5.1439     0.0000     8.0000 </r>
       <r>    -4.9928     0.0000     8.0000 </r>
       <r>    -4.8417     0.0000     8.0000 </r>
       <r>    -4.6906     0.0000     8.0000 </r>
       <r>    -4.5395     0.0000     8.0000 </r>
       <r>    -4.3884     0.0000     8.0000 </r>
       <r>    -4.2373     0.0000     8.0000 </r>
       <r>    -4.0861     0.0000     8.0000 </r>
       <r>    -3.9350     0.0000     8.0000 </r>
       <r>    -3.7839     0.0000     8.0000 </r>
       <r>    -3.6328     0.0000     8.0000 </r>
       <r>    -3.4817     0.0000     8.0000 </r>
       <r>    -3.3306     0.0000     8.0000 </r>
       <r>    -3.1795     0.0000     8.0000 </r>
       <r>    -3.0284     0.0000     8.0000 </r>
       <r>    -2.8773     0.0000     8.0000 </r>
       <r>    -2.7262     0.0000     8.0000 </r>
       <r>    -2.5750     0.0176     8.0027 </r>
       <r>    -2.4239     0.4286     8.0972 </r>
       <r>    -2.2728     0.3461     8.2884 </r>
       <r>    -2.1217     2.8337     8.9386 </r>
       <r>    -1.9706     1.2102     9.5220 </r>
       <r>    -1.8195     0.4645     9.7079 </r>
       <r>    -1.6684     1.1946    10.0127 </r>
       <r>    -1.5173     1.5994    10.2984 </r>
       <r>    -1.3662     1.4066    10.6304 </r>
       <r>    -1.2151     1.6199    11.0584 </r>
       <r>    -1.0640     3.5954    11.9496 </r>
       <r>    -0.9128     3.6371    12.8586 </r>
       <r>    -0.7617     2.3228    13.6137 </r>
       <r>    -0.6106     0.8447    13.9621 </r>
       <r>    -0.4595     0.0000    14.0000 </r>
       <r>    -0.3084     0.0000    14.0000 </r>
       <r>    -0.1573     0.0000    14.0000 </r>
       <r>    -0.0062     0.0000    14.0000 </r>
       <r>     0.1449     0.0000    14.0000 </r>
       <r>     0.2960     0.0000    14.0000 </r>
       <r>     0.4471     0.0000    14.0000 </r>
       <r>     0.5983     0.0000    14.0000 </r>
       <r>     0.7494     0.0000    14.0000 </r>
       <r>     0.9005     0.0000    14.0000 </r>
       <r>     1.0516     0.0000    14.0000 </r>
       <r>     1.2027     0.0000    14.0000 </r>
       <r>     1.3538     0.0000    14.0000 </r>
       <r>     1.5049     0.0000    14.0000 </r>
       <r>     1.6560     0.0000    14.0000 </r>
       <r>     1.8071     0.0000    14.0000 </r>
       <r>     1.9582     0.0000    14.0000 </r>
       <r>     2.1093     0.0000    14.0000 </r>
       <r>     2.2605     0.0000    14.0000 </r>
       <r>     2.4116     0.0000    14.0000 </r>
       <r>     2.5627     0.0000    14.0000 </r>
       <r>     2.7138     0.0000    14.0000 </r>
       <r>     2.8649     0.0000    14.0000 </r>
       <r>     3.0160     0.0000    14.0000 </r>
       <r>     3.1671     0.0000    14.0000 </r>
       <r>     3.3182     0.0000    14.0000 </r>
       <r>     3.4693     0.0000    14.0000 </r>
       <r>     3.6204     0.0000    14.0000 </r>
       <r>     3.7716     0.0000    14.0000 </r>
       <r>     3.9227     0.0000    14.0000 </r>
       <r>     4.0738     0.0000    14.0000 </r>
       <r>     4.2249     0.0000    14.0000 </r>
       <r>     4.3760     0.0000    14.0000 </r>
       <r>     4.5271     0.0000    14.0000 </r>
       <r>     4.6782     0.0077    14.0012 </r>
       <r>     4.8293     0.0000    14.0012 </r>
       <r>     4.9804     0.0444    14.0171 </r>
       <r>     5.1315     0.0000    14.0174 </r>
       <r>     5.2827     0.0919    14.0312 </r>
       <r>     5.4338     0.0310    14.0359 </r>
       <r>     5.5849     0.0000    14.0683 </r>
       <r>     5.7360     0.0005    14.0684 </r>
       <r>     5.8871     0.1820    14.1027 </r>
       <r>     6.0382     0.0000    14.1308 </r>
       <r>     6.1893     0.0613    14.1678 </r>
       <r>     6.3404     0.1838    14.1956 </r>
       <r>     6.4915     0.1344    14.2159 </r>
       <r>     6.6426     0.6032    14.3284 </r>
       <r>     6.7937     0.0919    14.3507 </r>
       <r>     6.9449     0.6455    14.5038 </r>
       <r>     7.0960     0.5707    14.6036 </r>
       <r>     7.2471     0.4535    14.7074 </r>
       <r>     7.3982     0.9528    14.9704 </r>
       <r>     7.5493     0.2068    15.1215 </r>
       <r>     7.7004     1.0410    15.3413 </r>
       <r>     7.8515     0.5679    15.5476 </r>
       <r>     8.0026     0.2421    15.7901 </r>
       <r>     8.1537     0.5862    15.9601 </r>
       <r>     8.3048     0.8770    16.1707 </r>
       <r>     8.4560     0.5513    16.3646 </r>
       <r>     8.6071     0.5969    16.4548 </r>
       <r>     8.7582     0.7659    16.6539 </r>
       <r>     8.9093     1.1356    16.9042 </r>
       <r>     9.0604     0.7354    17.0799 </r>
       <r>     9.2115     1.6941    17.4470 </r>
       <r>     9.3626     0.4151    17.6565 </r>
       <r>     9.5137     0.8577    17.8970 </r>
       <r>     9.6648     1.3620    18.3019 </r>
       <r>     9.8159     1.5313    18.7673 </r>
       <r>     9.9671     0.8272    18.9479 </r>
       <r>    10.1182     0.9647    19.2326 </r>
       <r>    10.2693     0.2582    19.3851 </r>
       <r>    10.4204     0.2299    19.5891 </r>
       <r>    10.5715     0.4933    19.7285 </r>
       <r>    10.7226     0.7632    19.9093 </r>
       <r>    10.8737     0.8891    20.1320 </r>
       <r>    11.0248     0.7071    20.3985 </r>
       <r>    11.1759     0.3677    20.5451 </r>
       <r>    11.3270     1.0660    20.7479 </r>
       <r>    11.4781     0.9267    21.0532 </r>
       <r>    11.6293     0.7630    21.3063 </r>
       <r>    11.7804     0.5690    21.4853 </r>
       <r>    11.9315     1.1438    21.7110 </r>
       <r>    12.0826     0.7407    21.8723 </r>
       <r>    12.2337     0.4662    21.9698 </r>
       <r>    12.3848     0.2023    22.0896 </r>
       <r>    12.5359     0.4312    22.2353 </r>
       <r>    12.6870     0.3064    22.3183 </r>
       <r>    12.8381     0.0505    22.4278 </r>
       <r>    12.9892     0.7991    22.6751 </r>
       <r>    13.1404     0.2586    22.7740 </r>
       <r>    13.2915     0.3233    22.8880 </r>
       <r>    13.4426     0.5646    23.0217 </r>
       <r>    13.5937     1.1299    23.2182 </r>
       <r>    13.7448     0.6134    23.5128 </r>
       <r>    13.8959     1.4962    23.9101 </r>
       <r>    14.0470     0.0060    23.9766 </r>
       <r>    14.1981     0.5334    24.1674 </r>
       <r>    14.3492     0.0206    24.2219 </r>
       <r>    14.5003     0.6051    24.3380 </r>
       <r>    14.6515     1.0086    24.5598 </r>
       <r>    14.8026     1.5385    24.8274 </r>
       <r>    14.9537     0.2442    25.0103 </r>
       <r>    15.1048     0.5527    25.1495 </r>
       <r>    15.2559     0.5544    25.2678 </r>
       <r>    15.4070     0.8273    25.4572 </r>
       <r>    15.5581     0.0972    25.6246 </r>
       <r>    15.7092     0.5914    25.8475 </r>
       <r>    15.8603     1.1238    26.1872 </r>
       <r>    16.0114     1.1163    26.4152 </r>
       <r>    16.1625     1.1221    26.5966 </r>
       <r>    16.3137     1.8339    27.0792 </r>
       <r>    16.4648     0.3319    27.1578 </r>
       <r>    16.6159     1.1987    27.4138 </r>
       <r>    16.7670     0.5970    27.7488 </r>
       <r>    16.9181     0.4702    27.8396 </r>
       <r>    17.0692     0.6442    28.0649 </r>
       <r>    17.2203     0.3493    28.3259 </r>
       <r>    17.3714     1.1929    28.5460 </r>
       <r>    17.5225     1.4855    28.9930 </r>
       <r>    17.6736     0.7346    29.2476 </r>
       <r>    17.8248     1.1643    29.5208 </r>
       <r>    17.9759     0.1838    29.6181 </r>
       <r>    18.1270     1.1917    29.8954 </r>
       <r>    18.2781     1.6960    30.3234 </r>
       <r>    18.4292     0.5707    30.5700 </r>
       <r>    18.5803     0.6971    30.7558 </r>
       <r>    18.7314     0.1812    30.8815 </r>
       <r>    18.8825     0.3708    30.9866 </r>
       <r>    19.0336     1.0550    31.2566 </r>
       <r>    19.1847     0.7618    31.5202 </r>
       <r>    19.3359     0.9950    31.7916 </r>
       <r>    19.4870     0.3578    31.8967 </r>
       <r>    19.6381     0.0000    31.9630 </r>
       <r>    19.7892     0.0000    31.9907 </r>
       <r>    19.9403     0.0000    32.0000 </r>
       <r>    20.0914     0.0000    32.0000 </r>
       <r>    20.2425     0.0000    32.0000 </r>
       <r>    20.3936     0.0000    32.0000 </r>
       <r>    20.5447     0.0000    32.0000 </r>
       <r>    20.6958     0.0000    32.0000 </r>
       <r>    20.8469     0.0000    32.0000 </r>
       <r>    20.9981     0.0000    32.0000 </r>
       <r>    21.1492     0.0000    32.0000 </r>
       <r>    21.3003     0.0000    32.0000 </r>
       <r>    21.4514     0.0000    32.0000 </r>
       <r>    21.6025     0.0000    32.0000 </r>
       <r>    21.7536     0.0000    32.0000 </r>
       <r>    21.9047     0.0000    32.0000 </r>
      </set>
     </set>
    </array>
   </total>
  </dos>
 </calculation>
 <structure name="finalpos" >
  <crystal>
   <varray name="basis" >
    <v>      -2.79406300       0.00000000       2.79406300 </v>
    <v>       0.00000000       2.79406300       2.79406300 </v>
    <v>      -2.79406300       2.79406300       0.00000000 </v>
   </varray>
   <i name="volume">     43.62531541 </i>
   <varray name="rec_basis" >
    <v>      -0.17895087      -0.17895087       0.17895087 </v>
    <v>       0.17895087       0.17895087       0.17895087 </v>
    <v>      -0.17895087       0.17895087      -0.17895087 </v>
   </varray>
  </crystal>
  <varray name="positions" >
   <v>       0.00000000       0.00000000       0.00000000 </v>
   <v>       0.49999996       0.50000004       0.49999996 </v>
  </varray>
 </structure>
</modeling>
