 
             +---------------------------------------------------+
             |                                                   |
             |                   WANNIER90                       |
             |                                                   |
             +---------------------------------------------------+
             |                                                   |
             |        Welcome to the Maximally-Localized         |
             |        Generalized Wannier Functions code         |
             |            http://www.wannier.org                 |
             |                                                   |
             |                                                   |
             |  Wannier90 Developer Group:                       |
             |    Giovanni Pizzi    (EPFL)                       |
             |    Valerio Vitale    (Cambridge)                  |
             |    David Vanderbilt  (Rutgers University)         |
             |    Nicola Marzari    (EPFL)                       |
             |    Ivo Souza         (Universidad del Pais Vasco) |
             |    Arash A. Mostofi  (Imperial College London)    |
             |    Jonathan R. Yates (University of Oxford)       |
             |                                                   |
             |  For the full list of Wannier90 3.x authors,      |
             |  please check the code documentation and the      |
             |  README on the GitHub page of the code            |
             |                                                   |
             |                                                   |
             |  Please cite                                      |
             |                                                   |
             |  [ref] "Wannier90 as a community code:            |
             |        new features and applications",            |
             |        G. Pizzi et al., J. Phys. Cond. Matt. 32,  |
             |        165902 (2020).                             |
             |        http://doi.org/10.1088/1361-648X/ab51ff    |
             |                                                   |
             |  in any publications arising from the use of      |
             |  this code. For the method please cite            |
             |                                                   |
             |  [ref] "Maximally Localized Generalised Wannier   |
             |         Functions for Composite Energy Bands"     |
             |         N. Marzari and D. Vanderbilt              |
             |         Phys. Rev. B 56 12847 (1997)              |
             |                                                   |
             |  [ref] "Maximally Localized Wannier Functions     |
             |         for Entangled Energy Bands"               |
             |         I. Souza, N. Marzari and D. Vanderbilt    |
             |         Phys. Rev. B 65 035109 (2001)             |
             |                                                   |
             |                                                   |
             | Copyright (c) 1996-2020                           |
             |        The Wannier90 Developer Group and          |
             |        individual contributors                    |
             |                                                   |
             |      Release: 3.1.0        5th March    2020      |
             |                                                   |
             | This program is free software; you can            |
             | redistribute it and/or modify it under the terms  |
             | of the GNU General Public License as published by |
             | the Free Software Foundation; either version 2 of |
             | the License, or (at your option) any later version|
             |                                                   |
             | This program is distributed in the hope that it   |
             | will be useful, but WITHOUT ANY WARRANTY; without |
             | even the implied warranty of MERCHANTABILITY or   |
             | FITNESS FOR A PARTICULAR PURPOSE. See the GNU     |
             | General Public License for more details.          |
             |                                                   |
             | You should have received a copy of the GNU General|
             | Public License along with this program; if not,   |
             | write to the Free Software Foundation, Inc.,      |
             | 675 Mass Ave, Cambridge, MA 02139, USA.           |
             |                                                   |
             +---------------------------------------------------+
             |    Execution started on  8Apr2024 at 15:14:18     |
             +---------------------------------------------------+
 
 ******************************************************************************
 * -> Using CODATA 2006 constant values                                       *
 *    (http://physics.nist.gov/cuu/Constants/index.html)                      *
 * -> Using Bohr value from CODATA                                            *
 ******************************************************************************
 

 Running in parallel on  16 CPUs

 
                                    ------
                                    SYSTEM
                                    ------
 
                              Lattice Vectors (Ang)
                    a_1    -3.006139   0.000000   3.006139
                    a_2     0.000000   3.006139   3.006139
                    a_3    -3.006139   3.006139   0.000000
 
                   Unit Cell Volume:      54.33218  (Ang^3)
 
                        Reciprocal-Space Vectors (Ang^-1)
                    b_1    -1.045059  -1.045059   1.045059
                    b_2     1.045059   1.045059   1.045059
                    b_3    -1.045059   1.045059  -1.045059
  
 *----------------------------------------------------------------------------*
 |   Site       Fractional Coordinate          Cartesian Coordinate (Ang)     |
 +----------------------------------------------------------------------------+
 | Cs   1   0.00000   0.00000   0.00000   |    0.00000   0.00000   0.00000    |
 | F    1   0.50000   0.50000   0.50000   |   -3.00614   3.00614   3.00614    |
 *----------------------------------------------------------------------------*
                                ------------
                                K-POINT GRID
                                ------------
  
             Grid size = 12 x 12 x 12      Total points = 1728
  
  
 *---------------------------------- MAIN ------------------------------------*
 |  Number of Wannier Functions               :                 3             |
 |  Number of Objective Wannier Functions     :                 3             |
 |  Number of input Bloch states              :                 3             |
 |  Output verbosity (1=low, 5=high)          :                 1             |
 |  Timing Level (1=low, 5=high)              :                 1             |
 |  Optimisation (0=memory, 3=speed)          :                 3             |
 |  Length Unit                               :               Ang             |
 |  Post-processing setup (write *.nnkp)      :                 F             |
 |  Using Gamma-only branch of algorithms     :                 F             |
 *----------------------------------------------------------------------------*
 *------------------------------- WANNIERISE ---------------------------------*
 |  Total number of iterations                :               500             |
 |  Number of CG steps before reset           :                 5             |
 |  Trial step length for line search         :             2.000             |
 |  Convergence tolerence                     :         0.100E-09             |
 |  Convergence window                        :                -1             |
 |  Iterations between writing output         :                 1             |
 |  Iterations between backing up to disk     :               100             |
 |  Write r^2_nm to file                      :                 F             |
 |  Write xyz WF centres to file              :                 F             |
 |  Write on-site energies <0n|H|0n> to file  :                 F             |
 |  Use guiding centre to control phases      :                 F             |
 |  Use phases for initial projections        :                 F             |
 *----------------------------------------------------------------------------*
 Time to read parameters        0.172 (sec)

 *---------------------------------- K-MESH ----------------------------------*
 +----------------------------------------------------------------------------+
 |                    Distance to Nearest-Neighbour Shells                    |
 |                    ------------------------------------                    |
 |          Shell             Distance (Ang^-1)          Multiplicity         |
 |          -----             -----------------          ------------         |
 |             1                   0.150841                      8            |
 |             2                   0.174176                      6            |
 |             3                   0.246323                     12            |
 |             4                   0.288839                     24            |
 |             5                   0.301683                      8            |
 |             6                   0.348353                      6            |
 |             7                   0.379609                     24            |
 |             8                   0.389471                     24            |
 |             9                   0.426644                     24            |
 |            10                   0.452524                     32            |
 |            11                   0.492646                     12            |
 |            12                   0.515221                     48            |
 |            13                   0.522530                     30            |
 |            14                   0.550794                     24            |
 |            15                   0.571076                     24            |
 |            16                   0.577678                     24            |
 |            17                   0.603365                      8            |
 |            18                   0.621935                     48            |
 |            19                   0.628002                     24            |
 |            20                   0.651709                     48            |
 |            21                   0.668938                     72            |
 |            22                   0.696706                      6            |
 |            23                   0.712848                     24            |
 |            24                   0.718148                     48            |
 |            25                   0.738968                     36            |
 |            26                   0.754206                     56            |
 |            27                   0.759218                     24            |
 |            28                   0.778941                     24            |
 |            29                   0.793412                     72            |
 |            30                   0.798177                     48            |
 |            31                   0.816960                     24            |
 |            32                   0.830769                     48            |
 |            33                   0.853287                     24            |
 |            34                   0.866517                     72            |
 |            35                   0.870883                     30            |
 |            36                   0.888129                     72            |
 +----------------------------------------------------------------------------+
 | The b-vectors are chosen automatically                                     |
 | The following shells are used:   1                                         |
 +----------------------------------------------------------------------------+
 |                        Shell   # Nearest-Neighbours                        |
 |                        -----   --------------------                        |
 |                          1               8                                 |
 +----------------------------------------------------------------------------+
 | Completeness relation is fully satisfied [Eq. (B1), PRB 56, 12847 (1997)]  |
 +----------------------------------------------------------------------------+
 |                  b_k Vectors (Ang^-1) and Weights (Ang^2)                  |
 |                  ----------------------------------------                  |
 |            No.         b_k(x)      b_k(y)      b_k(z)        w_b           |
 |            ---        --------------------------------     --------        |
 |             1        -0.087088    0.087088   -0.087088    16.481279        |
 |             2         0.087088    0.087088    0.087088    16.481279        |
 |             3        -0.087088   -0.087088    0.087088    16.481279        |
 |             4        -0.087088    0.087088    0.087088    16.481279        |
 |             5         0.087088   -0.087088    0.087088    16.481279        |
 |             6        -0.087088   -0.087088   -0.087088    16.481279        |
 |             7         0.087088    0.087088   -0.087088    16.481279        |
 |             8         0.087088   -0.087088   -0.087088    16.481279        |
 +----------------------------------------------------------------------------+
 |                           b_k Directions (Ang^-1)                          |
 |                           -----------------------                          |
 |            No.           x           y           z                         |
 |            ---        --------------------------------                     |
 |             1        -0.087088    0.087088   -0.087088                     |
 |             2         0.087088    0.087088    0.087088                     |
 |             3        -0.087088   -0.087088    0.087088                     |
 |             4        -0.087088    0.087088    0.087088                     |
 +----------------------------------------------------------------------------+
  
 Time to get kmesh              0.721 (sec)
 *============================================================================*
 |                              MEMORY ESTIMATE                               |
 |         Maximum RAM allocated during each phase of the calculation         |
 *============================================================================*
 |                            Wannierise:            7.00 Mb                  |
 |                          plot_wannier:            7.00 Mb                  |
 *----------------------------------------------------------------------------*
  
 Starting a new Wannier90 calculation ...


 Reading overlaps from mp-1784.mmn    :  Created on  8Apr2024 at 15:14:11

 Reading projections from mp-1784.amn :  Created on  8Apr2024 at 15:14: 9  with SCDM

 Time to read overlaps          0.101 (sec)

 Writing checkpoint file mp-1784.chk... done

 
 *------------------------------- WANNIERISE ---------------------------------*
 +--------------------------------------------------------------------+<-- CONV
 | Iter  Delta Spread     RMS Gradient      Spread (Ang^2)      Time  |<-- CONV
 +--------------------------------------------------------------------+<-- CONV
 
 ------------------------------------------------------------------------------
 Initial State
  WF centre and spread    1  (  0.000227, -0.000058,  3.006184 )     1.22565539
  WF centre and spread    2  ( -3.006233, -0.000085, -0.000227 )     1.22636987
  WF centre and spread    3  ( -0.000129,  0.000140,  3.006327 )     1.22667707
  Sum of centres and spreads ( -3.006135, -0.000003,  6.012284 )     3.67870232
 
      0     0.368E+01     0.0000000000        3.6787044912       0.00  <-- CONV
        O_D=      0.0079954 O_OD=      0.0105787 O_TOT=      3.6787045 <-- SPRD
 ------------------------------------------------------------------------------
 Cycle:      1
  WF centre and spread    1  (  0.000013, -0.000003,  3.006142 )     1.22100384
  WF centre and spread    2  ( -3.006144, -0.000005, -0.000014 )     1.22101608
  WF centre and spread    3  ( -0.000007,  0.000009,  3.006151 )     1.22103759
  Sum of centres and spreads ( -3.006138,  0.000000,  6.012278 )     3.66305751
 
      1    -0.156E-01     0.0363677613        3.6630596800       0.01  <-- CONV
        O_D=      0.0002430 O_OD=      0.0026863 O_TOT=      3.6630597 <-- SPRD
 Delta: O_D= -0.7752399E-02 O_OD= -0.7892413E-02 O_TOT= -0.1564481E-01 <-- DLTA
 ------------------------------------------------------------------------------
 Cycle:      2
  WF centre and spread    1  (  0.000008, -0.000001,  3.006141 )     1.22090992
  WF centre and spread    2  ( -3.006142, -0.000003, -0.000009 )     1.22091821
  WF centre and spread    3  ( -0.000004,  0.000005,  3.006146 )     1.22093103
  Sum of centres and spreads ( -3.006138,  0.000000,  6.012278 )     3.66275916
 
      2    -0.298E-03     0.0133317576        3.6627613289       0.01  <-- CONV
        O_D=      0.0001151 O_OD=      0.0025159 O_TOT=      3.6627613 <-- SPRD
 Delta: O_D= -0.1279073E-03 O_OD= -0.1704438E-03 O_TOT= -0.2983511E-03 <-- DLTA
 ------------------------------------------------------------------------------
 Cycle:      3
  WF centre and spread    1  (  0.000004, -0.000000,  3.006140 )     1.22086923
  WF centre and spread    2  ( -3.006140, -0.000002, -0.000005 )     1.22087156
  WF centre and spread    3  ( -0.000002,  0.000003,  3.006143 )     1.22087874
  Sum of centres and spreads ( -3.006138,  0.000001,  6.012278 )     3.66261953
 
      3    -0.140E-03     0.0074135807        3.6626216941       0.02  <-- CONV
        O_D=      0.0000463 O_OD=      0.0024450 O_TOT=      3.6626217 <-- SPRD
 Delta: O_D= -0.6877856E-04 O_OD= -0.7085623E-04 O_TOT= -0.1396348E-03 <-- DLTA
 ------------------------------------------------------------------------------
 Cycle:      4
  WF centre and spread    1  (  0.000003, -0.000000,  3.006139 )     1.22085401
  WF centre and spread    2  ( -3.006140, -0.000001, -0.000003 )     1.22085551
  WF centre and spread    3  ( -0.000001,  0.000002,  3.006142 )     1.22086064
  Sum of centres and spreads ( -3.006138,  0.000001,  6.012278 )     3.66257017
 
      4    -0.494E-04     0.0050210314        3.6625723378       0.02  <-- CONV
        O_D=      0.0000257 O_OD=      0.0024162 O_TOT=      3.6625723 <-- SPRD
 Delta: O_D= -0.2056230E-04 O_OD= -0.2879406E-04 O_TOT= -0.4935636E-04 <-- DLTA
 ------------------------------------------------------------------------------
 Cycle:      5
  WF centre and spread    1  (  0.000002,  0.000000,  3.006139 )     1.22084924
  WF centre and spread    2  ( -3.006139, -0.000001, -0.000003 )     1.22085044
  WF centre and spread    3  ( -0.000001,  0.000001,  3.006141 )     1.22085563
  Sum of centres and spreads ( -3.006138,  0.000000,  6.012278 )     3.66255531
 
      5    -0.149E-04     0.0025345559        3.6625574758       0.03  <-- CONV
        O_D=      0.0000186 O_OD=      0.0024085 O_TOT=      3.6625575 <-- SPRD
 Delta: O_D= -0.7157079E-05 O_OD= -0.7704944E-05 O_TOT= -0.1486202E-04 <-- DLTA
 ------------------------------------------------------------------------------
 Cycle:      6
  WF centre and spread    1  (  0.000001,  0.000000,  3.006139 )     1.22084417
  WF centre and spread    2  ( -3.006139, -0.000001, -0.000002 )     1.22084487
  WF centre and spread    3  ( -0.000000,  0.000001,  3.006140 )     1.22085073
  Sum of centres and spreads ( -3.006138,  0.000000,  6.012278 )     3.66253977
 
      6    -0.155E-04     0.0020610140        3.6625419415       0.03  <-- CONV
        O_D=      0.0000110 O_OD=      0.0024006 O_TOT=      3.6625419 <-- SPRD
 Delta: O_D= -0.7599400E-05 O_OD= -0.7934894E-05 O_TOT= -0.1553429E-04 <-- DLTA
 ------------------------------------------------------------------------------
 Cycle:      7
  WF centre and spread    1  (  0.000001,  0.000000,  3.006139 )     1.22084195
  WF centre and spread    2  ( -3.006139, -0.000001, -0.000002 )     1.22084251
  WF centre and spread    3  ( -0.000000,  0.000001,  3.006140 )     1.22084809
  Sum of centres and spreads ( -3.006138,  0.000000,  6.012278 )     3.66253255
 
      7    -0.722E-05     0.0021813085        3.6625347188       0.04  <-- CONV
        O_D=      0.0000077 O_OD=      0.0023966 O_TOT=      3.6625347 <-- SPRD
 Delta: O_D= -0.3245503E-05 O_OD= -0.3977164E-05 O_TOT= -0.7222667E-05 <-- DLTA
 ------------------------------------------------------------------------------
 Cycle:      8
  WF centre and spread    1  (  0.000001,  0.000000,  3.006139 )     1.22084058
  WF centre and spread    2  ( -3.006139, -0.000001, -0.000001 )     1.22084082
  WF centre and spread    3  ( -0.000000,  0.000001,  3.006140 )     1.22084610
  Sum of centres and spreads ( -3.006138,  0.000000,  6.012278 )     3.66252750
 
      8    -0.505E-05     0.0013475498        3.6625296717       0.04  <-- CONV
        O_D=      0.0000052 O_OD=      0.0023941 O_TOT=      3.6625297 <-- SPRD
 Delta: O_D= -0.2531433E-05 O_OD= -0.2515688E-05 O_TOT= -0.5047121E-05 <-- DLTA
 ------------------------------------------------------------------------------
 Cycle:      9
  WF centre and spread    1  (  0.000001,  0.000000,  3.006139 )     1.22083933
  WF centre and spread    2  ( -3.006139, -0.000001, -0.000001 )     1.22083937
  WF centre and spread    3  ( -0.000000,  0.000001,  3.006140 )     1.22084452
  Sum of centres and spreads ( -3.006138,  0.000000,  6.012278 )     3.66252322
 
      9    -0.428E-05     0.0011594344        3.6625253899       0.05  <-- CONV
        O_D=      0.0000032 O_OD=      0.0023918 O_TOT=      3.6625254 <-- SPRD
 Delta: O_D= -0.1970200E-05 O_OD= -0.2311580E-05 O_TOT= -0.4281780E-05 <-- DLTA
 ------------------------------------------------------------------------------
 Cycle:     10
  WF centre and spread    1  (  0.000001,  0.000000,  3.006139 )     1.22083812
  WF centre and spread    2  ( -3.006139, -0.000001, -0.000001 )     1.22083808
  WF centre and spread    3  ( -0.000000,  0.000000,  3.006140 )     1.22084338
  Sum of centres and spreads ( -3.006138, -0.000000,  6.012278 )     3.66251958
 
     10    -0.364E-05     0.0011119503        3.6625217458       0.05  <-- CONV
        O_D=      0.0000014 O_OD=      0.0023899 O_TOT=      3.6625217 <-- SPRD
 Delta: O_D= -0.1763943E-05 O_OD= -0.1880175E-05 O_TOT= -0.3644118E-05 <-- DLTA
 ------------------------------------------------------------------------------
 Cycle:     11
  WF centre and spread    1  (  0.000001,  0.000000,  3.006139 )     1.22083744
  WF centre and spread    2  ( -3.006139, -0.000001, -0.000001 )     1.22083738
  WF centre and spread    3  ( -0.000000,  0.000000,  3.006140 )     1.22084290
  Sum of centres and spreads ( -3.006138, -0.000000,  6.012278 )     3.66251772
 
     11    -0.186E-05     0.0008965833        3.6625198855       0.05  <-- CONV
        O_D=      0.0000006 O_OD=      0.0023889 O_TOT=      3.6625199 <-- SPRD
 Delta: O_D= -0.8587780E-06 O_OD= -0.1001461E-05 O_TOT= -0.1860239E-05 <-- DLTA
 ------------------------------------------------------------------------------
 Cycle:     12
  WF centre and spread    1  (  0.000001,  0.000000,  3.006139 )     1.22083709
  WF centre and spread    2  ( -3.006139, -0.000001, -0.000001 )     1.22083704
  WF centre and spread    3  (  0.000000,  0.000000,  3.006140 )     1.22084266
  Sum of centres and spreads ( -3.006138, -0.000000,  6.012278 )     3.66251679
 
     12    -0.928E-06     0.0006144830        3.6625189577       0.06  <-- CONV
        O_D=      0.0000002 O_OD=      0.0023884 O_TOT=      3.6625190 <-- SPRD
 Delta: O_D= -0.4262215E-06 O_OD= -0.5016256E-06 O_TOT= -0.9278471E-06 <-- DLTA
 ------------------------------------------------------------------------------
 Cycle:     13
  WF centre and spread    1  (  0.000001,  0.000000,  3.006139 )     1.22083706
  WF centre and spread    2  ( -3.006139, -0.000001, -0.000001 )     1.22083698
  WF centre and spread    3  (  0.000000,  0.000000,  3.006140 )     1.22084256
  Sum of centres and spreads ( -3.006138, -0.000000,  6.012278 )     3.66251660
 
     13    -0.189E-06     0.0003699398        3.6625187684       0.06  <-- CONV
        O_D=      0.0000001 O_OD=      0.0023883 O_TOT=      3.6625188 <-- SPRD
 Delta: O_D= -0.8174554E-07 O_OD= -0.1075593E-06 O_TOT= -0.1893049E-06 <-- DLTA
 ------------------------------------------------------------------------------
 Cycle:     14
  WF centre and spread    1  (  0.000001,  0.000000,  3.006139 )     1.22083706
  WF centre and spread    2  ( -3.006139, -0.000001, -0.000001 )     1.22083697
  WF centre and spread    3  (  0.000000,  0.000000,  3.006140 )     1.22084248
  Sum of centres and spreads ( -3.006138, -0.000000,  6.012278 )     3.66251651
 
     14    -0.931E-07     0.0002057670        3.6625186753       0.07  <-- CONV
        O_D=      0.0000000 O_OD=      0.0023882 O_TOT=      3.6625187 <-- SPRD
 Delta: O_D= -0.4514719E-07 O_OD= -0.4794080E-07 O_TOT= -0.9308799E-07 <-- DLTA
 ------------------------------------------------------------------------------
 Cycle:     15
  WF centre and spread    1  (  0.000001,  0.000000,  3.006139 )     1.22083706
  WF centre and spread    2  ( -3.006139, -0.000001, -0.000000 )     1.22083696
  WF centre and spread    3  (  0.000000,  0.000000,  3.006140 )     1.22084245
  Sum of centres and spreads ( -3.006138, -0.000000,  6.012278 )     3.66251647
 
     15    -0.322E-07     0.0001211317        3.6625186431       0.07  <-- CONV
        O_D=      0.0000000 O_OD=      0.0023882 O_TOT=      3.6625186 <-- SPRD
 Delta: O_D= -0.1408022E-07 O_OD= -0.1810344E-07 O_TOT= -0.3218366E-07 <-- DLTA
 ------------------------------------------------------------------------------
 Cycle:     16
  WF centre and spread    1  (  0.000000,  0.000000,  3.006139 )     1.22083705
  WF centre and spread    2  ( -3.006139, -0.000001, -0.000000 )     1.22083695
  WF centre and spread    3  (  0.000000, -0.000000,  3.006140 )     1.22084245
  Sum of centres and spreads ( -3.006138, -0.000000,  6.012278 )     3.66251646
 
     16    -0.157E-07     0.0000782166        3.6625186274       0.07  <-- CONV
        O_D=      0.0000000 O_OD=      0.0023882 O_TOT=      3.6625186 <-- SPRD
 Delta: O_D= -0.8017825E-08 O_OD= -0.7685109E-08 O_TOT= -0.1570293E-07 <-- DLTA
 ------------------------------------------------------------------------------
 Cycle:     17
  WF centre and spread    1  (  0.000000,  0.000000,  3.006139 )     1.22083704
  WF centre and spread    2  ( -3.006139, -0.000000, -0.000000 )     1.22083695
  WF centre and spread    3  (  0.000000, -0.000000,  3.006140 )     1.22084246
  Sum of centres and spreads ( -3.006138, -0.000000,  6.012278 )     3.66251645
 
     17    -0.770E-08     0.0000601003        3.6625186197       0.08  <-- CONV
        O_D=      0.0000000 O_OD=      0.0023882 O_TOT=      3.6625186 <-- SPRD
 Delta: O_D= -0.3257662E-08 O_OD= -0.4447314E-08 O_TOT= -0.7704976E-08 <-- DLTA
 ------------------------------------------------------------------------------
 Cycle:     18
  WF centre and spread    1  (  0.000000,  0.000000,  3.006139 )     1.22083704
  WF centre and spread    2  ( -3.006139, -0.000000, -0.000000 )     1.22083694
  WF centre and spread    3  (  0.000000, -0.000000,  3.006140 )     1.22084246
  Sum of centres and spreads ( -3.006138, -0.000000,  6.012278 )     3.66251645
 
     18    -0.408E-08     0.0000425698        3.6625186156       0.08  <-- CONV
        O_D=      0.0000000 O_OD=      0.0023882 O_TOT=      3.6625186 <-- SPRD
 Delta: O_D= -0.1763548E-08 O_OD= -0.2312271E-08 O_TOT= -0.4075820E-08 <-- DLTA
 ------------------------------------------------------------------------------
 Cycle:     19
  WF centre and spread    1  (  0.000000,  0.000000,  3.006139 )     1.22083704
  WF centre and spread    2  ( -3.006139, -0.000000, -0.000000 )     1.22083694
  WF centre and spread    3  (  0.000000, -0.000000,  3.006140 )     1.22084246
  Sum of centres and spreads ( -3.006138, -0.000000,  6.012278 )     3.66251644
 
     19    -0.207E-08     0.0000366034        3.6625186136       0.08  <-- CONV
        O_D=      0.0000000 O_OD=      0.0023882 O_TOT=      3.6625186 <-- SPRD
 Delta: O_D= -0.9021234E-09 O_OD= -0.1163747E-08 O_TOT= -0.2065870E-08 <-- DLTA
 ------------------------------------------------------------------------------
 Cycle:     20
  WF centre and spread    1  (  0.000000,  0.000000,  3.006139 )     1.22083704
  WF centre and spread    2  ( -3.006139, -0.000000, -0.000000 )     1.22083694
  WF centre and spread    3  (  0.000000, -0.000000,  3.006140 )     1.22084246
  Sum of centres and spreads ( -3.006138, -0.000000,  6.012278 )     3.66251644
 
     20    -0.217E-11     0.0000240632        3.6625186136       0.09  <-- CONV
        O_D=      0.0000000 O_OD=      0.0023882 O_TOT=      3.6625186 <-- SPRD
 Delta: O_D= -0.9821118E-12 O_OD= -0.1192413E-11 O_TOT= -0.2174705E-11 <-- DLTA
 ------------------------------------------------------------------------------
 Cycle:     21
  WF centre and spread    1  (  0.000000,  0.000000,  3.006139 )     1.22083704
  WF centre and spread    2  ( -3.006139, -0.000000, -0.000000 )     1.22083694
  WF centre and spread    3  (  0.000000, -0.000000,  3.006140 )     1.22084246
  Sum of centres and spreads ( -3.006138, -0.000000,  6.012278 )     3.66251644
 
     21    -0.129E-08     0.0000240462        3.6625186123       0.09  <-- CONV
        O_D=      0.0000000 O_OD=      0.0023882 O_TOT=      3.6625186 <-- SPRD
 Delta: O_D= -0.5829220E-09 O_OD= -0.7098713E-09 O_TOT= -0.1292793E-08 <-- DLTA
 ------------------------------------------------------------------------------
 Cycle:     22
  WF centre and spread    1  (  0.000000,  0.000000,  3.006139 )     1.22083704
  WF centre and spread    2  ( -3.006139, -0.000000, -0.000000 )     1.22083694
  WF centre and spread    3  (  0.000000, -0.000000,  3.006140 )     1.22084246
  Sum of centres and spreads ( -3.006138, -0.000000,  6.012278 )     3.66251644
 
     22    -0.148E-11     0.0000193276        3.6625186123       0.09  <-- CONV
        O_D=      0.0000000 O_OD=      0.0023882 O_TOT=      3.6625186 <-- SPRD
 Delta: O_D= -0.6573601E-12 O_OD= -0.8228067E-12 O_TOT= -0.1480149E-11 <-- DLTA
 ------------------------------------------------------------------------------
 Cycle:     23
  WF centre and spread    1  (  0.000000,  0.000000,  3.006139 )     1.22083704
  WF centre and spread    2  ( -3.006139, -0.000000, -0.000000 )     1.22083694
  WF centre and spread    3  (  0.000000, -0.000000,  3.006140 )     1.22084246
  Sum of centres and spreads ( -3.006138, -0.000000,  6.012278 )     3.66251644
 
     23    -0.114E-08     0.0000193256        3.6625186111       0.09  <-- CONV
        O_D=      0.0000000 O_OD=      0.0023882 O_TOT=      3.6625186 <-- SPRD
 Delta: O_D= -0.4428232E-09 O_OD= -0.6972185E-09 O_TOT= -0.1140042E-08 <-- DLTA
 ------------------------------------------------------------------------------
 Cycle:     24
  WF centre and spread    1  (  0.000000,  0.000000,  3.006139 )     1.22083704
  WF centre and spread    2  ( -3.006139, -0.000000, -0.000000 )     1.22083694
  WF centre and spread    3  (  0.000000, -0.000000,  3.006140 )     1.22084246
  Sum of centres and spreads ( -3.006138, -0.000000,  6.012278 )     3.66251644
 
     24    -0.977E-12     0.0000164098        3.6625186111       0.10  <-- CONV
        O_D=      0.0000000 O_OD=      0.0023882 O_TOT=      3.6625186 <-- SPRD
 Delta: O_D= -0.3940882E-12 O_OD= -0.5831967E-12 O_TOT= -0.9774404E-12 <-- DLTA
 ------------------------------------------------------------------------------
 Cycle:     25
  WF centre and spread    1  (  0.000000,  0.000000,  3.006139 )     1.22083704
  WF centre and spread    2  ( -3.006139, -0.000000, -0.000000 )     1.22083694
  WF centre and spread    3  (  0.000000, -0.000000,  3.006140 )     1.22084246
  Sum of centres and spreads ( -3.006138, -0.000000,  6.012278 )     3.66251644
 
     25    -0.324E-09     0.0000164057        3.6625186108       0.10  <-- CONV
        O_D=      0.0000000 O_OD=      0.0023882 O_TOT=      3.6625186 <-- SPRD
 Delta: O_D= -0.1503785E-09 O_OD= -0.1732041E-09 O_TOT= -0.3235825E-09 <-- DLTA
 ------------------------------------------------------------------------------
 Cycle:     26
  WF centre and spread    1  (  0.000000,  0.000000,  3.006139 )     1.22083704
  WF centre and spread    2  ( -3.006139, -0.000000, -0.000000 )     1.22083694
  WF centre and spread    3  (  0.000000, -0.000000,  3.006140 )     1.22084246
  Sum of centres and spreads ( -3.006138, -0.000000,  6.012278 )     3.66251644
 
     26    -0.383E-12     0.0000088921        3.6625186108       0.10  <-- CONV
        O_D=      0.0000000 O_OD=      0.0023882 O_TOT=      3.6625186 <-- SPRD
 Delta: O_D= -0.1687418E-12 O_OD= -0.2139708E-12 O_TOT= -0.3828049E-12 <-- DLTA
 ------------------------------------------------------------------------------
 Cycle:     27
  WF centre and spread    1  (  0.000000,  0.000000,  3.006139 )     1.22083704
  WF centre and spread    2  ( -3.006139, -0.000000, -0.000000 )     1.22083694
  WF centre and spread    3  (  0.000000, -0.000000,  3.006140 )     1.22084246
  Sum of centres and spreads ( -3.006138, -0.000000,  6.012278 )     3.66251644
 
     27    -0.682E-12     0.0000088897        3.6625186108       0.10  <-- CONV
        O_D=      0.0000000 O_OD=      0.0023882 O_TOT=      3.6625186 <-- SPRD
 Delta: O_D= -0.3024139E-12 O_OD= -0.3794361E-12 O_TOT= -0.6816769E-12 <-- DLTA
 ------------------------------------------------------------------------------
 Cycle:     28
  WF centre and spread    1  (  0.000000,  0.000000,  3.006139 )     1.22083704
  WF centre and spread    2  ( -3.006139, -0.000000, -0.000000 )     1.22083694
  WF centre and spread    3  (  0.000000, -0.000000,  3.006140 )     1.22084246
  Sum of centres and spreads ( -3.006138, -0.000000,  6.012278 )     3.66251644
 
     28    -0.980E-12     0.0000088844        3.6625186108       0.10  <-- CONV
        O_D=      0.0000000 O_OD=      0.0023882 O_TOT=      3.6625186 <-- SPRD
 Delta: O_D= -0.4354657E-12 O_OD= -0.5442305E-12 O_TOT= -0.9796608E-12 <-- DLTA
 ------------------------------------------------------------------------------
 Cycle:     29
  WF centre and spread    1  (  0.000000,  0.000000,  3.006139 )     1.22083704
  WF centre and spread    2  ( -3.006139, -0.000000, -0.000000 )     1.22083694
  WF centre and spread    3  (  0.000000, -0.000000,  3.006140 )     1.22084246
  Sum of centres and spreads ( -3.006138, -0.000000,  6.012278 )     3.66251644
 
     29    -0.128E-11     0.0000088765        3.6625186108       0.11  <-- CONV
        O_D=      0.0000000 O_OD=      0.0023882 O_TOT=      3.6625186 <-- SPRD
 Delta: O_D= -0.5675376E-12 O_OD= -0.7079819E-12 O_TOT= -0.1275868E-11 <-- DLTA
 ------------------------------------------------------------------------------
 Cycle:     30
  WF centre and spread    1  (  0.000000,  0.000000,  3.006139 )     1.22083704
  WF centre and spread    2  ( -3.006139, -0.000000, -0.000000 )     1.22083694
  WF centre and spread    3  (  0.000000, -0.000000,  3.006140 )     1.22084246
  Sum of centres and spreads ( -3.006138, -0.000000,  6.012278 )     3.66251644
 
     30    -0.480E-09     0.0000088658        3.6625186103       0.11  <-- CONV
        O_D=      0.0000000 O_OD=      0.0023882 O_TOT=      3.6625186 <-- SPRD
 Delta: O_D= -0.1960017E-09 O_OD= -0.2836949E-09 O_TOT= -0.4796963E-09 <-- DLTA
 ------------------------------------------------------------------------------
 Cycle:     31
  WF centre and spread    1  (  0.000000,  0.000000,  3.006139 )     1.22083704
  WF centre and spread    2  ( -3.006139, -0.000000, -0.000000 )     1.22083694
  WF centre and spread    3  (  0.000000, -0.000000,  3.006140 )     1.22084246
  Sum of centres and spreads ( -3.006138, -0.000000,  6.012278 )     3.66251644
 
     31    -0.255E-12     0.0000082026        3.6625186103       0.11  <-- CONV
        O_D=      0.0000000 O_OD=      0.0023882 O_TOT=      3.6625186 <-- SPRD
 Delta: O_D= -0.1159740E-12 O_OD= -0.1390749E-12 O_TOT= -0.2549072E-12 <-- DLTA
 ------------------------------------------------------------------------------
 Cycle:     32
  WF centre and spread    1  (  0.000000,  0.000000,  3.006139 )     1.22083704
  WF centre and spread    2  ( -3.006139, -0.000000, -0.000000 )     1.22083694
  WF centre and spread    3  (  0.000000, -0.000000,  3.006140 )     1.22084246
  Sum of centres and spreads ( -3.006138, -0.000000,  6.012278 )     3.66251644
 
     32    -0.509E-12     0.0000081961        3.6625186103       0.11  <-- CONV
        O_D=      0.0000000 O_OD=      0.0023882 O_TOT=      3.6625186 <-- SPRD
 Delta: O_D= -0.2313275E-12 O_OD= -0.2775488E-12 O_TOT= -0.5089262E-12 <-- DLTA
 ------------------------------------------------------------------------------
 Cycle:     33
  WF centre and spread    1  (  0.000000,  0.000000,  3.006139 )     1.22083704
  WF centre and spread    2  ( -3.006139, -0.000000, -0.000000 )     1.22083694
  WF centre and spread    3  (  0.000000, -0.000000,  3.006140 )     1.22084246
  Sum of centres and spreads ( -3.006138, -0.000000,  6.012278 )     3.66251644
 
     33    -0.760E-12     0.0000081830        3.6625186103       0.11  <-- CONV
        O_D=      0.0000000 O_OD=      0.0023882 O_TOT=      3.6625186 <-- SPRD
 Delta: O_D= -0.3452644E-12 O_OD= -0.4146032E-12 O_TOT= -0.7602807E-12 <-- DLTA
 ------------------------------------------------------------------------------
 Cycle:     34
  WF centre and spread    1  (  0.000000,  0.000000,  3.006139 )     1.22083704
  WF centre and spread    2  ( -3.006139, -0.000000, -0.000000 )     1.22083694
  WF centre and spread    3  (  0.000000, -0.000000,  3.006140 )     1.22084246
  Sum of centres and spreads ( -3.006138, -0.000000,  6.012278 )     3.66251644
 
     34    -0.157E-09     0.0000081635        3.6625186102       0.12  <-- CONV
        O_D=      0.0000000 O_OD=      0.0023882 O_TOT=      3.6625186 <-- SPRD
 Delta: O_D= -0.6100912E-10 O_OD= -0.9648082E-10 O_TOT= -0.1574896E-09 <-- DLTA
 ------------------------------------------------------------------------------
 Cycle:     35
  WF centre and spread    1  (  0.000000,  0.000000,  3.006139 )     1.22083704
  WF centre and spread    2  ( -3.006139, -0.000000, -0.000000 )     1.22083694
  WF centre and spread    3  (  0.000000, -0.000000,  3.006140 )     1.22084246
  Sum of centres and spreads ( -3.006138, -0.000000,  6.012278 )     3.66251644
 
     35    -0.308E-10     0.0000082101        3.6625186101       0.12  <-- CONV
        O_D=      0.0000000 O_OD=      0.0023882 O_TOT=      3.6625186 <-- SPRD
 Delta: O_D= -0.4039666E-11 O_OD= -0.2674091E-10 O_TOT= -0.3078071E-10 <-- DLTA
 ------------------------------------------------------------------------------
 Cycle:     36
  WF centre and spread    1  (  0.000000,  0.000000,  3.006139 )     1.22083704
  WF centre and spread    2  ( -3.006139, -0.000000, -0.000000 )     1.22083694
  WF centre and spread    3  (  0.000000, -0.000000,  3.006140 )     1.22084246
  Sum of centres and spreads ( -3.006138, -0.000000,  6.012278 )     3.66251644
 
     36    -0.344E-10     0.0000113984        3.6625186101       0.12  <-- CONV
        O_D=      0.0000000 O_OD=      0.0023882 O_TOT=      3.6625186 <-- SPRD
 Delta: O_D= -0.5768755E-11 O_OD= -0.2864562E-10 O_TOT= -0.3441425E-10 <-- DLTA
 ------------------------------------------------------------------------------
 Cycle:     37
  WF centre and spread    1  (  0.000000,  0.000000,  3.006139 )     1.22083704
  WF centre and spread    2  ( -3.006139, -0.000000, -0.000000 )     1.22083694
  WF centre and spread    3  (  0.000000, -0.000000,  3.006140 )     1.22084246
  Sum of centres and spreads ( -3.006138, -0.000000,  6.012278 )     3.66251644
 
     37    -0.206E-09     0.0000145803        3.6625186099       0.13  <-- CONV
        O_D=      0.0000000 O_OD=      0.0023882 O_TOT=      3.6625186 <-- SPRD
 Delta: O_D= -0.1038045E-09 O_OD= -0.1019383E-09 O_TOT= -0.2057430E-09 <-- DLTA
 ------------------------------------------------------------------------------
 Cycle:     38
  WF centre and spread    1  (  0.000000,  0.000000,  3.006139 )     1.22083704
  WF centre and spread    2  ( -3.006139, -0.000000, -0.000000 )     1.22083694
  WF centre and spread    3  (  0.000000, -0.000000,  3.006140 )     1.22084246
  Sum of centres and spreads ( -3.006138, -0.000000,  6.012278 )     3.66251644
 
     38    -0.169E-12     0.0000058551        3.6625186099       0.13  <-- CONV
        O_D=      0.0000000 O_OD=      0.0023882 O_TOT=      3.6625186 <-- SPRD
 Delta: O_D= -0.6795436E-13 O_OD= -0.1010867E-12 O_TOT= -0.1691980E-12 <-- DLTA
 ------------------------------------------------------------------------------
 Cycle:     39
  WF centre and spread    1  (  0.000000,  0.000000,  3.006139 )     1.22083704
  WF centre and spread    2  ( -3.006139, -0.000000, -0.000000 )     1.22083694
  WF centre and spread    3  (  0.000000, -0.000000,  3.006140 )     1.22084246
  Sum of centres and spreads ( -3.006138, -0.000000,  6.012278 )     3.66251644
 
     39    -0.298E-12     0.0000058491        3.6625186099       0.13  <-- CONV
        O_D=      0.0000000 O_OD=      0.0023882 O_TOT=      3.6625186 <-- SPRD
 Delta: O_D= -0.1190638E-12 O_OD= -0.1789667E-12 O_TOT= -0.2979839E-12 <-- DLTA
 ------------------------------------------------------------------------------
 Cycle:     40
  WF centre and spread    1  (  0.000000,  0.000000,  3.006139 )     1.22083704
  WF centre and spread    2  ( -3.006139, -0.000000, -0.000000 )     1.22083694
  WF centre and spread    3  (  0.000000, -0.000000,  3.006140 )     1.22084246
  Sum of centres and spreads ( -3.006138, -0.000000,  6.012278 )     3.66251644
 
     40    -0.425E-12     0.0000058390        3.6625186099       0.13  <-- CONV
        O_D=      0.0000000 O_OD=      0.0023882 O_TOT=      3.6625186 <-- SPRD
 Delta: O_D= -0.1695538E-12 O_OD= -0.2559103E-12 O_TOT= -0.4254375E-12 <-- DLTA
 ------------------------------------------------------------------------------
 Cycle:     41
  WF centre and spread    1  (  0.000000,  0.000000,  3.006139 )     1.22083704
  WF centre and spread    2  ( -3.006139, -0.000000, -0.000000 )     1.22083694
  WF centre and spread    3  (  0.000000, -0.000000,  3.006140 )     1.22084246
  Sum of centres and spreads ( -3.006138, -0.000000,  6.012278 )     3.66251644
 
     41    -0.851E-10     0.0000058251        3.6625186098       0.13  <-- CONV
        O_D=      0.0000000 O_OD=      0.0023882 O_TOT=      3.6625186 <-- SPRD
 Delta: O_D= -0.3349043E-10 O_OD= -0.5165067E-10 O_TOT= -0.8514078E-10 <-- DLTA
 ------------------------------------------------------------------------------
 Cycle:     42
  WF centre and spread    1  (  0.000000,  0.000000,  3.006139 )     1.22083704
  WF centre and spread    2  ( -3.006139, -0.000000, -0.000000 )     1.22083694
  WF centre and spread    3  (  0.000000, -0.000000,  3.006140 )     1.22084246
  Sum of centres and spreads ( -3.006138, -0.000000,  6.012278 )     3.66251644
 
     42    -0.763E-11     0.0000062549        3.6625186098       0.14  <-- CONV
        O_D=      0.0000000 O_OD=      0.0023882 O_TOT=      3.6625186 <-- SPRD
 Delta: O_D= -0.3275691E-11 O_OD= -0.4355643E-11 O_TOT= -0.7631673E-11 <-- DLTA
 ------------------------------------------------------------------------------
 Cycle:     43
  WF centre and spread    1  (  0.000000,  0.000000,  3.006139 )     1.22083704
  WF centre and spread    2  ( -3.006139, -0.000000, -0.000000 )     1.22083694
  WF centre and spread    3  (  0.000000, -0.000000,  3.006140 )     1.22084246
  Sum of centres and spreads ( -3.006138, -0.000000,  6.012278 )     3.66251644
 
     43    -0.227E-12     0.0000077406        3.6625186098       0.14  <-- CONV
        O_D=      0.0000000 O_OD=      0.0023882 O_TOT=      3.6625186 <-- SPRD
 Delta: O_D= -0.9584067E-13 O_OD= -0.1312145E-12 O_TOT= -0.2269296E-12 <-- DLTA
 ------------------------------------------------------------------------------
 Cycle:     44
  WF centre and spread    1  (  0.000000,  0.000000,  3.006139 )     1.22083704
  WF centre and spread    2  ( -3.006139, -0.000000, -0.000000 )     1.22083694
  WF centre and spread    3  (  0.000000, -0.000000,  3.006140 )     1.22084246
  Sum of centres and spreads ( -3.006138, -0.000000,  6.012278 )     3.66251644
 
     44    -0.452E-12     0.0000077296        3.6625186098       0.14  <-- CONV
        O_D=      0.0000000 O_OD=      0.0023882 O_TOT=      3.6625186 <-- SPRD
 Delta: O_D= -0.1908194E-12 O_OD= -0.2613604E-12 O_TOT= -0.4520828E-12 <-- DLTA
 ------------------------------------------------------------------------------
 Cycle:     45
  WF centre and spread    1  (  0.000000,  0.000000,  3.006139 )     1.22083704
  WF centre and spread    2  ( -3.006139, -0.000000, -0.000000 )     1.22083694
  WF centre and spread    3  (  0.000000, -0.000000,  3.006140 )     1.22084246
  Sum of centres and spreads ( -3.006138, -0.000000,  6.012278 )     3.66251644
 
     45    -0.793E-10     0.0000077077        3.6625186097       0.14  <-- CONV
        O_D=      0.0000000 O_OD=      0.0023882 O_TOT=      3.6625186 <-- SPRD
 Delta: O_D= -0.3074836E-10 O_OD= -0.4851955E-10 O_TOT= -0.7926770E-10 <-- DLTA
 ------------------------------------------------------------------------------
 Cycle:     46
  WF centre and spread    1  (  0.000000,  0.000000,  3.006139 )     1.22083704
  WF centre and spread    2  ( -3.006139, -0.000000, -0.000000 )     1.22083694
  WF centre and spread    3  (  0.000000, -0.000000,  3.006140 )     1.22084246
  Sum of centres and spreads ( -3.006138, -0.000000,  6.012278 )     3.66251644
 
     46    -0.733E-13     0.0000042393        3.6625186097       0.14  <-- CONV
        O_D=      0.0000000 O_OD=      0.0023882 O_TOT=      3.6625186 <-- SPRD
 Delta: O_D= -0.2663862E-13 O_OD= -0.4625944E-13 O_TOT= -0.7327472E-13 <-- DLTA
 ------------------------------------------------------------------------------
 Cycle:     47
  WF centre and spread    1  (  0.000000,  0.000000,  3.006139 )     1.22083704
  WF centre and spread    2  ( -3.006139, -0.000000, -0.000000 )     1.22083694
  WF centre and spread    3  (  0.000000, -0.000000,  3.006140 )     1.22084246
  Sum of centres and spreads ( -3.006138, -0.000000,  6.012278 )     3.66251644
 
     47    -0.141E-12     0.0000042415        3.6625186097       0.15  <-- CONV
        O_D=      0.0000000 O_OD=      0.0023882 O_TOT=      3.6625186 <-- SPRD
 Delta: O_D= -0.5838350E-13 O_OD= -0.8267866E-13 O_TOT= -0.1412204E-12 <-- DLTA
 ------------------------------------------------------------------------------
 Cycle:     48
  WF centre and spread    1  (  0.000000,  0.000000,  3.006139 )     1.22083704
  WF centre and spread    2  ( -3.006139, -0.000000, -0.000000 )     1.22083694
  WF centre and spread    3  (  0.000000, -0.000000,  3.006140 )     1.22084246
  Sum of centres and spreads ( -3.006138, -0.000000,  6.012278 )     3.66251644
 
     48    -0.209E-12     0.0000042406        3.6625186097       0.15  <-- CONV
        O_D=      0.0000000 O_OD=      0.0023882 O_TOT=      3.6625186 <-- SPRD
 Delta: O_D= -0.9002962E-13 O_OD= -0.1190107E-12 O_TOT= -0.2087219E-12 <-- DLTA
 ------------------------------------------------------------------------------
 Cycle:     49
  WF centre and spread    1  (  0.000000,  0.000000,  3.006139 )     1.22083704
  WF centre and spread    2  ( -3.006139, -0.000000, -0.000000 )     1.22083694
  WF centre and spread    3  (  0.000000, -0.000000,  3.006140 )     1.22084246
  Sum of centres and spreads ( -3.006138, -0.000000,  6.012278 )     3.66251644
 
     49    -0.684E-13     0.0000042368        3.6625186097       0.15  <-- CONV
        O_D=      0.0000000 O_OD=      0.0023882 O_TOT=      3.6625186 <-- SPRD
 Delta: O_D= -0.3164209E-13 O_OD= -0.3640708E-13 O_TOT= -0.6838974E-13 <-- DLTA
 ------------------------------------------------------------------------------
 Cycle:     50
  WF centre and spread    1  (  0.000000,  0.000000,  3.006139 )     1.22083704
  WF centre and spread    2  ( -3.006139, -0.000000, -0.000000 )     1.22083694
  WF centre and spread    3  (  0.000000, -0.000000,  3.006140 )     1.22084246
  Sum of centres and spreads ( -3.006138, -0.000000,  6.012278 )     3.66251644
 
     50    -0.135E-12     0.0000042338        3.6625186097       0.15  <-- CONV
        O_D=      0.0000000 O_OD=      0.0023882 O_TOT=      3.6625186 <-- SPRD
 Delta: O_D= -0.6311785E-13 O_OD= -0.7268968E-13 O_TOT= -0.1354472E-12 <-- DLTA
 ------------------------------------------------------------------------------
 Cycle:     51
  WF centre and spread    1  (  0.000000,  0.000000,  3.006139 )     1.22083704
  WF centre and spread    2  ( -3.006139, -0.000000, -0.000000 )     1.22083694
  WF centre and spread    3  (  0.000000, -0.000000,  3.006140 )     1.22084246
  Sum of centres and spreads ( -3.006138, -0.000000,  6.012278 )     3.66251644
 
     51    -0.203E-12     0.0000042279        3.6625186097       0.15  <-- CONV
        O_D=      0.0000000 O_OD=      0.0023882 O_TOT=      3.6625186 <-- SPRD
 Delta: O_D= -0.9421915E-13 O_OD= -0.1086839E-12 O_TOT= -0.2029488E-12 <-- DLTA
 ------------------------------------------------------------------------------
 Cycle:     52
  WF centre and spread    1  (  0.000000,  0.000000,  3.006139 )     1.22083704
  WF centre and spread    2  ( -3.006139, -0.000000, -0.000000 )     1.22083694
  WF centre and spread    3  (  0.000000, -0.000000,  3.006140 )     1.22084246
  Sum of centres and spreads ( -3.006138, -0.000000,  6.012278 )     3.66251644
 
     52    -0.269E-12     0.0000042190        3.6625186097       0.15  <-- CONV
        O_D=      0.0000000 O_OD=      0.0023882 O_TOT=      3.6625186 <-- SPRD
 Delta: O_D= -0.1247448E-12 O_OD= -0.1442232E-12 O_TOT= -0.2691181E-12 <-- DLTA
 ------------------------------------------------------------------------------
 Cycle:     53
  WF centre and spread    1  (  0.000000,  0.000000,  3.006139 )     1.22083704
  WF centre and spread    2  ( -3.006139, -0.000000, -0.000000 )     1.22083694
  WF centre and spread    3  (  0.000000, -0.000000,  3.006140 )     1.22084246
  Sum of centres and spreads ( -3.006138, -0.000000,  6.012278 )     3.66251644
 
     53    -0.334E-12     0.0000042073        3.6625186097       0.15  <-- CONV
        O_D=      0.0000000 O_OD=      0.0023882 O_TOT=      3.6625186 <-- SPRD
 Delta: O_D= -0.1545046E-12 O_OD= -0.1791505E-12 O_TOT= -0.3335110E-12 <-- DLTA
 ------------------------------------------------------------------------------
 Cycle:     54
  WF centre and spread    1  (  0.000000,  0.000000,  3.006139 )     1.22083704
  WF centre and spread    2  ( -3.006139, -0.000000, -0.000000 )     1.22083694
  WF centre and spread    3  (  0.000000, -0.000000,  3.006140 )     1.22084246
  Sum of centres and spreads ( -3.006138, -0.000000,  6.012278 )     3.66251644
 
     54    -0.397E-12     0.0000041929        3.6625186097       0.16  <-- CONV
        O_D=      0.0000000 O_OD=      0.0023882 O_TOT=      3.6625186 <-- SPRD
 Delta: O_D= -0.1833227E-12 O_OD= -0.2133137E-12 O_TOT= -0.3970158E-12 <-- DLTA
 ------------------------------------------------------------------------------
 Cycle:     55
  WF centre and spread    1  (  0.000000,  0.000000,  3.006139 )     1.22083704
  WF centre and spread    2  ( -3.006139, -0.000000, -0.000000 )     1.22083694
  WF centre and spread    3  (  0.000000, -0.000000,  3.006140 )     1.22084246
  Sum of centres and spreads ( -3.006138, -0.000000,  6.012278 )     3.66251644
 
     55    -0.657E-13     0.0000041758        3.6625186097       0.16  <-- CONV
        O_D=      0.0000000 O_OD=      0.0023882 O_TOT=      3.6625186 <-- SPRD
 Delta: O_D= -0.3040766E-13 O_OD= -0.3569801E-13 O_TOT= -0.6572520E-13 <-- DLTA
 ------------------------------------------------------------------------------
 Cycle:     56
  WF centre and spread    1  (  0.000000,  0.000000,  3.006139 )     1.22083704
  WF centre and spread    2  ( -3.006139, -0.000000, -0.000000 )     1.22083694
  WF centre and spread    3  (  0.000000, -0.000000,  3.006140 )     1.22084246
  Sum of centres and spreads ( -3.006138, -0.000000,  6.012278 )     3.66251644
 
     56    -0.132E-12     0.0000041731        3.6625186097       0.16  <-- CONV
        O_D=      0.0000000 O_OD=      0.0023882 O_TOT=      3.6625186 <-- SPRD
 Delta: O_D= -0.6066372E-13 O_OD= -0.7128282E-13 O_TOT= -0.1318945E-12 <-- DLTA
 ------------------------------------------------------------------------------
 Cycle:     57
  WF centre and spread    1  (  0.000000,  0.000000,  3.006139 )     1.22083704
  WF centre and spread    2  ( -3.006139, -0.000000, -0.000000 )     1.22083694
  WF centre and spread    3  (  0.000000, -0.000000,  3.006140 )     1.22084246
  Sum of centres and spreads ( -3.006138, -0.000000,  6.012278 )     3.66251644
 
     57    -0.198E-12     0.0000041675        3.6625186097       0.16  <-- CONV
        O_D=      0.0000000 O_OD=      0.0023882 O_TOT=      3.6625186 <-- SPRD
 Delta: O_D= -0.9057867E-13 O_OD= -0.1065953E-12 O_TOT= -0.1976197E-12 <-- DLTA
 ------------------------------------------------------------------------------
 Cycle:     58
  WF centre and spread    1  (  0.000000,  0.000000,  3.006139 )     1.22083704
  WF centre and spread    2  ( -3.006139, -0.000000, -0.000000 )     1.22083694
  WF centre and spread    3  (  0.000000, -0.000000,  3.006140 )     1.22084246
  Sum of centres and spreads ( -3.006138, -0.000000,  6.012278 )     3.66251644
 
     58    -0.261E-12     0.0000041593        3.6625186097       0.16  <-- CONV
        O_D=      0.0000000 O_OD=      0.0023882 O_TOT=      3.6625186 <-- SPRD
 Delta: O_D= -0.1199691E-12 O_OD= -0.1414940E-12 O_TOT= -0.2611245E-12 <-- DLTA
 ------------------------------------------------------------------------------
 Cycle:     59
  WF centre and spread    1  (  0.000000,  0.000000,  3.006139 )     1.22083704
  WF centre and spread    2  ( -3.006139, -0.000000, -0.000000 )     1.22083694
  WF centre and spread    3  (  0.000000, -0.000000,  3.006140 )     1.22084246
  Sum of centres and spreads ( -3.006138, -0.000000,  6.012278 )     3.66251644
 
     59    -0.434E-10     0.0000041484        3.6625186097       0.16  <-- CONV
        O_D=      0.0000000 O_OD=      0.0023882 O_TOT=      3.6625186 <-- SPRD
 Delta: O_D= -0.1627643E-10 O_OD= -0.2708155E-10 O_TOT= -0.4335776E-10 <-- DLTA
 ------------------------------------------------------------------------------
 Cycle:     60
  WF centre and spread    1  (  0.000000,  0.000000,  3.006139 )     1.22083704
  WF centre and spread    2  ( -3.006139, -0.000000, -0.000000 )     1.22083694
  WF centre and spread    3  (  0.000000, -0.000000,  3.006140 )     1.22084246
  Sum of centres and spreads ( -3.006138, -0.000000,  6.012278 )     3.66251644
 
     60    -0.181E-12     0.0000041575        3.6625186097       0.16  <-- CONV
        O_D=      0.0000000 O_OD=      0.0023882 O_TOT=      3.6625186 <-- SPRD
 Delta: O_D= -0.4928570E-13 O_OD= -0.1316096E-12 O_TOT= -0.1811884E-12 <-- DLTA
 ------------------------------------------------------------------------------
 Cycle:     61
  WF centre and spread    1  (  0.000000,  0.000000,  3.006139 )     1.22083704
  WF centre and spread    2  ( -3.006139, -0.000000, -0.000000 )     1.22083694
  WF centre and spread    3  (  0.000000, -0.000000,  3.006140 )     1.22084246
  Sum of centres and spreads ( -3.006138, -0.000000,  6.012278 )     3.66251644
 
     61    -0.657E-13     0.0000041674        3.6625186097       0.17  <-- CONV
        O_D=      0.0000000 O_OD=      0.0023882 O_TOT=      3.6625186 <-- SPRD
 Delta: O_D= -0.3337164E-13 O_OD= -0.3245668E-13 O_TOT= -0.6572520E-13 <-- DLTA
 ------------------------------------------------------------------------------
 Cycle:     62
  WF centre and spread    1  (  0.000000,  0.000000,  3.006139 )     1.22083704
  WF centre and spread    2  ( -3.006139, -0.000000, -0.000000 )     1.22083694
  WF centre and spread    3  (  0.000000, -0.000000,  3.006140 )     1.22084246
  Sum of centres and spreads ( -3.006138, -0.000000,  6.012278 )     3.66251644
 
     62    -0.131E-12     0.0000041636        3.6625186097       0.17  <-- CONV
        O_D=      0.0000000 O_OD=      0.0023882 O_TOT=      3.6625186 <-- SPRD
 Delta: O_D= -0.6651726E-13 O_OD= -0.6478628E-13 O_TOT= -0.1314504E-12 <-- DLTA
 ------------------------------------------------------------------------------
 Cycle:     63
  WF centre and spread    1  (  0.000000,  0.000000,  3.006139 )     1.22083704
  WF centre and spread    2  ( -3.006139, -0.000000, -0.000000 )     1.22083694
  WF centre and spread    3  (  0.000000, -0.000000,  3.006140 )     1.22084246
  Sum of centres and spreads ( -3.006138, -0.000000,  6.012278 )     3.66251644
 
     63    -0.196E-12     0.0000041560        3.6625186097       0.17  <-- CONV
        O_D=      0.0000000 O_OD=      0.0023882 O_TOT=      3.6625186 <-- SPRD
 Delta: O_D= -0.9915423E-13 O_OD= -0.9678152E-13 O_TOT= -0.1958433E-12 <-- DLTA
 ------------------------------------------------------------------------------
 Cycle:     64
  WF centre and spread    1  (  0.000000,  0.000000,  3.006139 )     1.22083704
  WF centre and spread    2  ( -3.006139, -0.000000, -0.000000 )     1.22083694
  WF centre and spread    3  (  0.000000, -0.000000,  3.006140 )     1.22084246
  Sum of centres and spreads ( -3.006138, -0.000000,  6.012278 )     3.66251644
 
     64    -0.287E-10     0.0000041447        3.6625186096       0.17  <-- CONV
        O_D=      0.0000000 O_OD=      0.0023882 O_TOT=      3.6625186 <-- SPRD
 Delta: O_D= -0.1252480E-10 O_OD= -0.1621317E-10 O_TOT= -0.2873790E-10 <-- DLTA
 ------------------------------------------------------------------------------
 Cycle:     65
  WF centre and spread    1  (  0.000000,  0.000000,  3.006139 )     1.22083704
  WF centre and spread    2  ( -3.006139, -0.000000, -0.000000 )     1.22083694
  WF centre and spread    3  (  0.000000, -0.000000,  3.006140 )     1.22084246
  Sum of centres and spreads ( -3.006138, -0.000000,  6.012278 )     3.66251644
 
     65    -0.113E-12     0.0000032803        3.6625186096       0.17  <-- CONV
        O_D=      0.0000000 O_OD=      0.0023882 O_TOT=      3.6625186 <-- SPRD
 Delta: O_D= -0.3746877E-13 O_OD= -0.7580134E-13 O_TOT= -0.1132427E-12 <-- DLTA
 ------------------------------------------------------------------------------
 Cycle:     66
  WF centre and spread    1  (  0.000000,  0.000000,  3.006139 )     1.22083704
  WF centre and spread    2  ( -3.006139, -0.000000, -0.000000 )     1.22083694
  WF centre and spread    3  (  0.000000, -0.000000,  3.006140 )     1.22084246
  Sum of centres and spreads ( -3.006138, -0.000000,  6.012278 )     3.66251644
 
     66    -0.154E-12     0.0000032832        3.6625186096       0.17  <-- CONV
        O_D=      0.0000000 O_OD=      0.0023882 O_TOT=      3.6625186 <-- SPRD
 Delta: O_D= -0.5470380E-13 O_OD= -0.9938968E-13 O_TOT= -0.1540990E-12 <-- DLTA
 ------------------------------------------------------------------------------
 Cycle:     67
  WF centre and spread    1  (  0.000000,  0.000000,  3.006139 )     1.22083704
  WF centre and spread    2  ( -3.006139, -0.000000, -0.000000 )     1.22083694
  WF centre and spread    3  (  0.000000, -0.000000,  3.006140 )     1.22084246
  Sum of centres and spreads ( -3.006138, -0.000000,  6.012278 )     3.66251644
 
     67    -0.409E-13     0.0000032852        3.6625186096       0.18  <-- CONV
        O_D=      0.0000000 O_OD=      0.0023882 O_TOT=      3.6625186 <-- SPRD
 Delta: O_D= -0.1737088E-13 O_OD= -0.2355104E-13 O_TOT= -0.4085621E-13 <-- DLTA
 ------------------------------------------------------------------------------
 Cycle:     68
  WF centre and spread    1  (  0.000000,  0.000000,  3.006139 )     1.22083704
  WF centre and spread    2  ( -3.006139, -0.000000, -0.000000 )     1.22083694
  WF centre and spread    3  (  0.000000, -0.000000,  3.006140 )     1.22084246
  Sum of centres and spreads ( -3.006138, -0.000000,  6.012278 )     3.66251644
 
     68    -0.817E-13     0.0000032842        3.6625186096       0.18  <-- CONV
        O_D=      0.0000000 O_OD=      0.0023882 O_TOT=      3.6625186 <-- SPRD
 Delta: O_D= -0.3469946E-13 O_OD= -0.4706738E-13 O_TOT= -0.8171241E-13 <-- DLTA
 ------------------------------------------------------------------------------
 Cycle:     69
  WF centre and spread    1  (  0.000000,  0.000000,  3.006139 )     1.22083704
  WF centre and spread    2  ( -3.006139, -0.000000, -0.000000 )     1.22083694
  WF centre and spread    3  (  0.000000, -0.000000,  3.006140 )     1.22084246
  Sum of centres and spreads ( -3.006138, -0.000000,  6.012278 )     3.66251644
 
     69    -0.123E-12     0.0000032823        3.6625186096       0.18  <-- CONV
        O_D=      0.0000000 O_OD=      0.0023882 O_TOT=      3.6625186 <-- SPRD
 Delta: O_D= -0.5193368E-13 O_OD= -0.7051955E-13 O_TOT= -0.1225686E-12 <-- DLTA
 ------------------------------------------------------------------------------
 Cycle:     70
  WF centre and spread    1  (  0.000000,  0.000000,  3.006139 )     1.22083704
  WF centre and spread    2  ( -3.006139, -0.000000, -0.000000 )     1.22083694
  WF centre and spread    3  (  0.000000, -0.000000,  3.006140 )     1.22084246
  Sum of centres and spreads ( -3.006138, -0.000000,  6.012278 )     3.66251644
 
     70    -0.163E-12     0.0000032794        3.6625186096       0.18  <-- CONV
        O_D=      0.0000000 O_OD=      0.0023882 O_TOT=      3.6625186 <-- SPRD
 Delta: O_D= -0.6902276E-13 O_OD= -0.9384290E-13 O_TOT= -0.1629807E-12 <-- DLTA
 ------------------------------------------------------------------------------
 Cycle:     71
  WF centre and spread    1  (  0.000000,  0.000000,  3.006139 )     1.22083704
  WF centre and spread    2  ( -3.006139, -0.000000, -0.000000 )     1.22083694
  WF centre and spread    3  (  0.000000, -0.000000,  3.006140 )     1.22084246
  Sum of centres and spreads ( -3.006138, -0.000000,  6.012278 )     3.66251644
 
     71    -0.203E-12     0.0000032756        3.6625186096       0.18  <-- CONV
        O_D=      0.0000000 O_OD=      0.0023882 O_TOT=      3.6625186 <-- SPRD
 Delta: O_D= -0.8591783E-13 O_OD= -0.1170197E-12 O_TOT= -0.2029488E-12 <-- DLTA
 ------------------------------------------------------------------------------
 Cycle:     72
  WF centre and spread    1  (  0.000000,  0.000000,  3.006139 )     1.22083704
  WF centre and spread    2  ( -3.006139, -0.000000, -0.000000 )     1.22083694
  WF centre and spread    3  (  0.000000, -0.000000,  3.006140 )     1.22084246
  Sum of centres and spreads ( -3.006138, -0.000000,  6.012278 )     3.66251644
 
     72    -0.242E-12     0.0000032709        3.6625186096       0.18  <-- CONV
        O_D=      0.0000000 O_OD=      0.0023882 O_TOT=      3.6625186 <-- SPRD
 Delta: O_D= -0.1025726E-12 O_OD= -0.1399926E-12 O_TOT= -0.2424727E-12 <-- DLTA
 ------------------------------------------------------------------------------
 Cycle:     73
  WF centre and spread    1  (  0.000000,  0.000000,  3.006139 )     1.22083704
  WF centre and spread    2  ( -3.006139, -0.000000, -0.000000 )     1.22083694
  WF centre and spread    3  (  0.000000, -0.000000,  3.006140 )     1.22084246
  Sum of centres and spreads ( -3.006138, -0.000000,  6.012278 )     3.66251644
 
     73    -0.404E-13     0.0000032653        3.6625186096       0.18  <-- CONV
        O_D=      0.0000000 O_OD=      0.0023882 O_TOT=      3.6625186 <-- SPRD
 Delta: O_D= -0.1704406E-13 O_OD= -0.2338147E-13 O_TOT= -0.4041212E-13 <-- DLTA
 ------------------------------------------------------------------------------
 Cycle:     74
  WF centre and spread    1  (  0.000000,  0.000000,  3.006139 )     1.22083704
  WF centre and spread    2  ( -3.006139, -0.000000, -0.000000 )     1.22083694
  WF centre and spread    3  (  0.000000, -0.000000,  3.006140 )     1.22084246
  Sum of centres and spreads ( -3.006138, -0.000000,  6.012278 )     3.66251644
 
     74    -0.808E-13     0.0000032644        3.6625186096       0.19  <-- CONV
        O_D=      0.0000000 O_OD=      0.0023882 O_TOT=      3.6625186 <-- SPRD
 Delta: O_D= -0.3404923E-13 O_OD= -0.4674039E-13 O_TOT= -0.8082424E-13 <-- DLTA
 ------------------------------------------------------------------------------
 Cycle:     75
  WF centre and spread    1  (  0.000000,  0.000000,  3.006139 )     1.22083704
  WF centre and spread    2  ( -3.006139, -0.000000, -0.000000 )     1.22083694
  WF centre and spread    3  (  0.000000, -0.000000,  3.006140 )     1.22084246
  Sum of centres and spreads ( -3.006138, -0.000000,  6.012278 )     3.66251644
 
     75    -0.121E-12     0.0000032626        3.6625186096       0.19  <-- CONV
        O_D=      0.0000000 O_OD=      0.0023882 O_TOT=      3.6625186 <-- SPRD
 Delta: O_D= -0.5096763E-13 O_OD= -0.7002168E-13 O_TOT= -0.1207923E-12 <-- DLTA
 ------------------------------------------------------------------------------
 Cycle:     76
  WF centre and spread    1  (  0.000000,  0.000000,  3.006139 )     1.22083704
  WF centre and spread    2  ( -3.006139, -0.000000, -0.000000 )     1.22083694
  WF centre and spread    3  (  0.000000, -0.000000,  3.006140 )     1.22084246
  Sum of centres and spreads ( -3.006138, -0.000000,  6.012278 )     3.66251644
 
     76    -0.161E-12     0.0000032599        3.6625186096       0.19  <-- CONV
        O_D=      0.0000000 O_OD=      0.0023882 O_TOT=      3.6625186 <-- SPRD
 Delta: O_D= -0.6775250E-13 O_OD= -0.9320279E-13 O_TOT= -0.1612044E-12 <-- DLTA
 ------------------------------------------------------------------------------
 Cycle:     77
  WF centre and spread    1  (  0.000000,  0.000000,  3.006139 )     1.22083704
  WF centre and spread    2  ( -3.006139, -0.000000, -0.000000 )     1.22083694
  WF centre and spread    3  (  0.000000, -0.000000,  3.006140 )     1.22084246
  Sum of centres and spreads ( -3.006138, -0.000000,  6.012278 )     3.66251644
 
     77    -0.200E-12     0.0000032563        3.6625186096       0.19  <-- CONV
        O_D=      0.0000000 O_OD=      0.0023882 O_TOT=      3.6625186 <-- SPRD
 Delta: O_D= -0.8435880E-13 O_OD= -0.1162347E-12 O_TOT= -0.2002842E-12 <-- DLTA
 ------------------------------------------------------------------------------
 Cycle:     78
  WF centre and spread    1  (  0.000000,  0.000000,  3.006139 )     1.22083704
  WF centre and spread    2  ( -3.006139, -0.000000, -0.000000 )     1.22083694
  WF centre and spread    3  (  0.000000, -0.000000,  3.006140 )     1.22084246
  Sum of centres and spreads ( -3.006138, -0.000000,  6.012278 )     3.66251644
 
     78    -0.240E-12     0.0000032519        3.6625186096       0.19  <-- CONV
        O_D=      0.0000000 O_OD=      0.0023882 O_TOT=      3.6625186 <-- SPRD
 Delta: O_D= -0.1007439E-12 O_OD= -0.1390749E-12 O_TOT= -0.2398082E-12 <-- DLTA
 ------------------------------------------------------------------------------
 Cycle:     79
  WF centre and spread    1  (  0.000000,  0.000000,  3.006139 )     1.22083704
  WF centre and spread    2  ( -3.006139, -0.000000, -0.000000 )     1.22083694
  WF centre and spread    3  (  0.000000, -0.000000,  3.006140 )     1.22084246
  Sum of centres and spreads ( -3.006138, -0.000000,  6.012278 )     3.66251644
 
     79    -0.400E-13     0.0000032467        3.6625186096       0.19  <-- CONV
        O_D=      0.0000000 O_OD=      0.0023882 O_TOT=      3.6625186 <-- SPRD
 Delta: O_D= -0.1674364E-13 O_OD= -0.2323055E-13 O_TOT= -0.3996803E-13 <-- DLTA
 ------------------------------------------------------------------------------
 Cycle:     80
  WF centre and spread    1  (  0.000000,  0.000000,  3.006139 )     1.22083704
  WF centre and spread    2  ( -3.006139, -0.000000, -0.000000 )     1.22083694
  WF centre and spread    3  (  0.000000, -0.000000,  3.006140 )     1.22084246
  Sum of centres and spreads ( -3.006138, -0.000000,  6.012278 )     3.66251644
 
     80    -0.799E-13     0.0000032459        3.6625186096       0.19  <-- CONV
        O_D=      0.0000000 O_OD=      0.0023882 O_TOT=      3.6625186 <-- SPRD
 Delta: O_D= -0.3345146E-13 O_OD= -0.4642771E-13 O_TOT= -0.7993606E-13 <-- DLTA
 ------------------------------------------------------------------------------
 Cycle:     81
  WF centre and spread    1  (  0.000000,  0.000000,  3.006139 )     1.22083704
  WF centre and spread    2  ( -3.006139, -0.000000, -0.000000 )     1.22083694
  WF centre and spread    3  (  0.000000, -0.000000,  3.006140 )     1.22084246
  Sum of centres and spreads ( -3.006138, -0.000000,  6.012278 )     3.66251644
 
     81    -0.120E-12     0.0000032442        3.6625186096       0.19  <-- CONV
        O_D=      0.0000000 O_OD=      0.0023882 O_TOT=      3.6625186 <-- SPRD
 Delta: O_D= -0.5007937E-13 O_OD= -0.6955721E-13 O_TOT= -0.1199041E-12 <-- DLTA
 ------------------------------------------------------------------------------
 Cycle:     82
  WF centre and spread    1  (  0.000000,  0.000000,  3.006139 )     1.22083704
  WF centre and spread    2  ( -3.006139, -0.000000, -0.000000 )     1.22083694
  WF centre and spread    3  (  0.000000, -0.000000,  3.006140 )     1.22084246
  Sum of centres and spreads ( -3.006138, -0.000000,  6.012278 )     3.66251644
 
     82    -0.159E-12     0.0000032417        3.6625186096       0.20  <-- CONV
        O_D=      0.0000000 O_OD=      0.0023882 O_TOT=      3.6625186 <-- SPRD
 Delta: O_D= -0.6658425E-13 O_OD= -0.9259564E-13 O_TOT= -0.1589839E-12 <-- DLTA
 ------------------------------------------------------------------------------
 Cycle:     83
  WF centre and spread    1  (  0.000000,  0.000000,  3.006139 )     1.22083704
  WF centre and spread    2  ( -3.006139, -0.000000, -0.000000 )     1.22083694
  WF centre and spread    3  (  0.000000, -0.000000,  3.006140 )     1.22084246
  Sum of centres and spreads ( -3.006138, -0.000000,  6.012278 )     3.66251644
 
     83    -0.199E-12     0.0000032384        3.6625186096       0.20  <-- CONV
        O_D=      0.0000000 O_OD=      0.0023882 O_TOT=      3.6625186 <-- SPRD
 Delta: O_D= -0.8292454E-13 O_OD= -0.1154849E-12 O_TOT= -0.1985079E-12 <-- DLTA
 ------------------------------------------------------------------------------
 Cycle:     84
  WF centre and spread    1  (  0.000000,  0.000000,  3.006139 )     1.22083704
  WF centre and spread    2  ( -3.006139, -0.000000, -0.000000 )     1.22083694
  WF centre and spread    3  (  0.000000, -0.000000,  3.006140 )     1.22084246
  Sum of centres and spreads ( -3.006138, -0.000000,  6.012278 )     3.66251644
 
     84    -0.237E-12     0.0000032343        3.6625186096       0.20  <-- CONV
        O_D=      0.0000000 O_OD=      0.0023882 O_TOT=      3.6625186 <-- SPRD
 Delta: O_D= -0.9906079E-13 O_OD= -0.1382093E-12 O_TOT= -0.2371436E-12 <-- DLTA
 ------------------------------------------------------------------------------
 Cycle:     85
  WF centre and spread    1  (  0.000000,  0.000000,  3.006139 )     1.22083704
  WF centre and spread    2  ( -3.006139, -0.000000, -0.000000 )     1.22083694
  WF centre and spread    3  (  0.000000, -0.000000,  3.006140 )     1.22084246
  Sum of centres and spreads ( -3.006138, -0.000000,  6.012278 )     3.66251644
 
     85    -0.395E-13     0.0000032294        3.6625186096       0.20  <-- CONV
        O_D=      0.0000000 O_OD=      0.0023882 O_TOT=      3.6625186 <-- SPRD
 Delta: O_D= -0.1646714E-13 O_OD= -0.2307616E-13 O_TOT= -0.3952394E-13 <-- DLTA
 ------------------------------------------------------------------------------
 Cycle:     86
  WF centre and spread    1  (  0.000000,  0.000000,  3.006139 )     1.22083704
  WF centre and spread    2  ( -3.006139, -0.000000, -0.000000 )     1.22083694
  WF centre and spread    3  (  0.000000, -0.000000,  3.006140 )     1.22084246
  Sum of centres and spreads ( -3.006138, -0.000000,  6.012278 )     3.66251644
 
     86    -0.790E-13     0.0000032286        3.6625186096       0.20  <-- CONV
        O_D=      0.0000000 O_OD=      0.0023882 O_TOT=      3.6625186 <-- SPRD
 Delta: O_D= -0.3290127E-13 O_OD= -0.4613150E-13 O_TOT= -0.7904788E-13 <-- DLTA
 ------------------------------------------------------------------------------
 Cycle:     87
  WF centre and spread    1  (  0.000000,  0.000000,  3.006139 )     1.22083704
  WF centre and spread    2  ( -3.006139, -0.000000, -0.000000 )     1.22083694
  WF centre and spread    3  (  0.000000, -0.000000,  3.006140 )     1.22084246
  Sum of centres and spreads ( -3.006138, -0.000000,  6.012278 )     3.66251644
 
     87    -0.119E-12     0.0000032270        3.6625186096       0.20  <-- CONV
        O_D=      0.0000000 O_OD=      0.0023882 O_TOT=      3.6625186 <-- SPRD
 Delta: O_D= -0.4926168E-13 O_OD= -0.6912006E-13 O_TOT= -0.1185718E-12 <-- DLTA
 ------------------------------------------------------------------------------
 Cycle:     88
  WF centre and spread    1  (  0.000000,  0.000000,  3.006139 )     1.22083704
  WF centre and spread    2  ( -3.006139, -0.000000, -0.000000 )     1.22083694
  WF centre and spread    3  (  0.000000, -0.000000,  3.006140 )     1.22084246
  Sum of centres and spreads ( -3.006138, -0.000000,  6.012278 )     3.66251644
 
     88    -0.157E-12     0.0000032247        3.6625186096       0.20  <-- CONV
        O_D=      0.0000000 O_OD=      0.0023882 O_TOT=      3.6625186 <-- SPRD
 Delta: O_D= -0.6550856E-13 O_OD= -0.9201494E-13 O_TOT= -0.1572076E-12 <-- DLTA
 ------------------------------------------------------------------------------
 Cycle:     89
  WF centre and spread    1  (  0.000000,  0.000000,  3.006139 )     1.22083704
  WF centre and spread    2  ( -3.006139, -0.000000, -0.000000 )     1.22083694
  WF centre and spread    3  (  0.000000, -0.000000,  3.006140 )     1.22084246
  Sum of centres and spreads ( -3.006138, -0.000000,  6.012278 )     3.66251644
 
     89    -0.197E-12     0.0000032216        3.6625186096       0.20  <-- CONV
        O_D=      0.0000000 O_OD=      0.0023882 O_TOT=      3.6625186 <-- SPRD
 Delta: O_D= -0.8160349E-13 O_OD= -0.1147806E-12 O_TOT= -0.1967315E-12 <-- DLTA
 ------------------------------------------------------------------------------
 Cycle:     90
  WF centre and spread    1  (  0.000000,  0.000000,  3.006139 )     1.22083704
  WF centre and spread    2  ( -3.006139, -0.000000, -0.000000 )     1.22083694
  WF centre and spread    3  (  0.000000, -0.000000,  3.006140 )     1.22084246
  Sum of centres and spreads ( -3.006138, -0.000000,  6.012278 )     3.66251644
 
     90    -0.235E-12     0.0000032177        3.6625186096       0.21  <-- CONV
        O_D=      0.0000000 O_OD=      0.0023882 O_TOT=      3.6625186 <-- SPRD
 Delta: O_D= -0.9750994E-13 O_OD= -0.1373806E-12 O_TOT= -0.2349232E-12 <-- DLTA
 ------------------------------------------------------------------------------
 Cycle:     91
  WF centre and spread    1  (  0.000000,  0.000000,  3.006139 )     1.22083704
  WF centre and spread    2  ( -3.006139, -0.000000, -0.000000 )     1.22083694
  WF centre and spread    3  (  0.000000, -0.000000,  3.006140 )     1.22084246
  Sum of centres and spreads ( -3.006138, -0.000000,  6.012278 )     3.66251644
 
     91    -0.391E-13     0.0000032132        3.6625186096       0.21  <-- CONV
        O_D=      0.0000000 O_OD=      0.0023882 O_TOT=      3.6625186 <-- SPRD
 Delta: O_D= -0.1621237E-13 O_OD= -0.2293565E-13 O_TOT= -0.3907985E-13 <-- DLTA
 ------------------------------------------------------------------------------
 Cycle:     92
  WF centre and spread    1  (  0.000000,  0.000000,  3.006139 )     1.22083704
  WF centre and spread    2  ( -3.006139, -0.000000, -0.000000 )     1.22083694
  WF centre and spread    3  (  0.000000, -0.000000,  3.006140 )     1.22084246
  Sum of centres and spreads ( -3.006138, -0.000000,  6.012278 )     3.66251644
 
     92    -0.782E-13     0.0000032124        3.6625186096       0.21  <-- CONV
        O_D=      0.0000000 O_OD=      0.0023882 O_TOT=      3.6625186 <-- SPRD
 Delta: O_D= -0.3239425E-13 O_OD= -0.4584874E-13 O_TOT= -0.7815970E-13 <-- DLTA
 ------------------------------------------------------------------------------
 Cycle:     93
  WF centre and spread    1  (  0.000000,  0.000000,  3.006139 )     1.22083704
  WF centre and spread    2  ( -3.006139, -0.000000, -0.000000 )     1.22083694
  WF centre and spread    3  (  0.000000, -0.000000,  3.006140 )     1.22084246
  Sum of centres and spreads ( -3.006138, -0.000000,  6.012278 )     3.66251644
 
     93    -0.117E-12     0.0000032110        3.6625186096       0.21  <-- CONV
        O_D=      0.0000000 O_OD=      0.0023882 O_TOT=      3.6625186 <-- SPRD
 Delta: O_D= -0.4850802E-13 O_OD= -0.6870546E-13 O_TOT= -0.1172396E-12 <-- DLTA
 ------------------------------------------------------------------------------
 Cycle:     94
  WF centre and spread    1  (  0.000000,  0.000000,  3.006139 )     1.22083704
  WF centre and spread    2  ( -3.006139, -0.000000, -0.000000 )     1.22083694
  WF centre and spread    3  (  0.000000, -0.000000,  3.006140 )     1.22084246
  Sum of centres and spreads ( -3.006138, -0.000000,  6.012278 )     3.66251644
 
     94    -0.156E-12     0.0000032088        3.6625186096       0.21  <-- CONV
        O_D=      0.0000000 O_OD=      0.0023882 O_TOT=      3.6625186 <-- SPRD
 Delta: O_D= -0.6451685E-13 O_OD= -0.9146633E-13 O_TOT= -0.1558753E-12 <-- DLTA
 ------------------------------------------------------------------------------
 Cycle:     95
  WF centre and spread    1  (  0.000000,  0.000000,  3.006139 )     1.22083704
  WF centre and spread    2  ( -3.006139, -0.000000, -0.000000 )     1.22083694
  WF centre and spread    3  (  0.000000, -0.000000,  3.006140 )     1.22084246
  Sum of centres and spreads ( -3.006138, -0.000000,  6.012278 )     3.66251644
 
     95    -0.195E-12     0.0000032058        3.6625186096       0.21  <-- CONV
        O_D=      0.0000000 O_OD=      0.0023882 O_TOT=      3.6625186 <-- SPRD
 Delta: O_D= -0.8038518E-13 O_OD= -0.1141058E-12 O_TOT= -0.1945111E-12 <-- DLTA
 ------------------------------------------------------------------------------
 Cycle:     96
  WF centre and spread    1  (  0.000000,  0.000000,  3.006139 )     1.22083704
  WF centre and spread    2  ( -3.006139, -0.000000, -0.000000 )     1.22083694
  WF centre and spread    3  (  0.000000, -0.000000,  3.006140 )     1.22084246
  Sum of centres and spreads ( -3.006138, -0.000000,  6.012278 )     3.66251644
 
     96    -0.233E-12     0.0000032022        3.6625186096       0.21  <-- CONV
        O_D=      0.0000000 O_OD=      0.0023882 O_TOT=      3.6625186 <-- SPRD
 Delta: O_D= -0.9607910E-13 O_OD= -0.1365965E-12 O_TOT= -0.2327027E-12 <-- DLTA
 ------------------------------------------------------------------------------
 Cycle:     97
  WF centre and spread    1  (  0.000000,  0.000000,  3.006139 )     1.22083704
  WF centre and spread    2  ( -3.006139, -0.000000, -0.000000 )     1.22083694
  WF centre and spread    3  (  0.000000, -0.000000,  3.006140 )     1.22084246
  Sum of centres and spreads ( -3.006138, -0.000000,  6.012278 )     3.66251644
 
[...]
  Sum of centres and spreads ( -3.006138, -0.000000,  6.012278 )     3.66251644
 
    473    -0.149E-12     0.0000028028        3.6625186096       0.64  <-- CONV
        O_D=      0.0000000 O_OD=      0.0023882 O_TOT=      3.6625186 <-- SPRD
 Delta: O_D= -0.5775587E-13 O_OD= -0.9111028E-13 O_TOT= -0.1487699E-12 <-- DLTA
 ------------------------------------------------------------------------------
 Cycle:    474
  WF centre and spread    1  (  0.000000,  0.000000,  3.006139 )     1.22083704
  WF centre and spread    2  ( -3.006139, -0.000000, -0.000000 )     1.22083694
  WF centre and spread    3  (  0.000000, -0.000000,  3.006140 )     1.22084246
  Sum of centres and spreads ( -3.006138, -0.000000,  6.012278 )     3.66251644
 
    474    -0.179E-12     0.0000028018        3.6625186096       0.64  <-- CONV
        O_D=      0.0000000 O_OD=      0.0023882 O_TOT=      3.6625186 <-- SPRD
 Delta: O_D= -0.6923418E-13 O_OD= -0.1092056E-12 O_TOT= -0.1785239E-12 <-- DLTA
 ------------------------------------------------------------------------------
 Cycle:    475
  WF centre and spread    1  (  0.000000,  0.000000,  3.006139 )     1.22083704
  WF centre and spread    2  ( -3.006139, -0.000000, -0.000000 )     1.22083694
  WF centre and spread    3  (  0.000000, -0.000000,  3.006140 )     1.22084246
  Sum of centres and spreads ( -3.006138, -0.000000,  6.012278 )     3.66251644
 
    475    -0.298E-13     0.0000028005        3.6625186096       0.64  <-- CONV
        O_D=      0.0000000 O_OD=      0.0023882 O_TOT=      3.6625186 <-- SPRD
 Delta: O_D= -0.1153826E-13 O_OD= -0.1820419E-13 O_TOT= -0.2975398E-13 <-- DLTA
 ------------------------------------------------------------------------------
 Cycle:    476
  WF centre and spread    1  (  0.000000,  0.000000,  3.006139 )     1.22083704
  WF centre and spread    2  ( -3.006139, -0.000000, -0.000000 )     1.22083694
  WF centre and spread    3  (  0.000000, -0.000000,  3.006140 )     1.22084246
  Sum of centres and spreads ( -3.006138, -0.000000,  6.012278 )     3.66251644
 
    476    -0.595E-13     0.0000028003        3.6625186096       0.64  <-- CONV
        O_D=      0.0000000 O_OD=      0.0023882 O_TOT=      3.6625186 <-- SPRD
 Delta: O_D= -0.2307118E-13 O_OD= -0.3639623E-13 O_TOT= -0.5950795E-13 <-- DLTA
 ------------------------------------------------------------------------------
 Cycle:    477
  WF centre and spread    1  (  0.000000,  0.000000,  3.006139 )     1.22083704
  WF centre and spread    2  ( -3.006139, -0.000000, -0.000000 )     1.22083694
  WF centre and spread    3  (  0.000000, -0.000000,  3.006140 )     1.22084246
  Sum of centres and spreads ( -3.006138, -0.000000,  6.012278 )     3.66251644
 
    477    -0.888E-13     0.0000027999        3.6625186096       0.64  <-- CONV
        O_D=      0.0000000 O_OD=      0.0023882 O_TOT=      3.6625186 <-- SPRD
 Delta: O_D= -0.3459166E-13 O_OD= -0.5457050E-13 O_TOT= -0.8881784E-13 <-- DLTA
 ------------------------------------------------------------------------------
 Cycle:    478
  WF centre and spread    1  (  0.000000,  0.000000,  3.006139 )     1.22083704
  WF centre and spread    2  ( -3.006139, -0.000000, -0.000000 )     1.22083694
  WF centre and spread    3  (  0.000000, -0.000000,  3.006140 )     1.22084246
  Sum of centres and spreads ( -3.006138, -0.000000,  6.012278 )     3.66251644
 
    478    -0.119E-12     0.0000027992        3.6625186096       0.65  <-- CONV
        O_D=      0.0000000 O_OD=      0.0023882 O_TOT=      3.6625186 <-- SPRD
 Delta: O_D= -0.4609263E-13 O_OD= -0.7271831E-13 O_TOT= -0.1190159E-12 <-- DLTA
 ------------------------------------------------------------------------------
 Cycle:    479
  WF centre and spread    1  (  0.000000,  0.000000,  3.006139 )     1.22083704
  WF centre and spread    2  ( -3.006139, -0.000000, -0.000000 )     1.22083694
  WF centre and spread    3  (  0.000000, -0.000000,  3.006140 )     1.22084246
  Sum of centres and spreads ( -3.006138, -0.000000,  6.012278 )     3.66251644
 
    479    -0.148E-12     0.0000027984        3.6625186096       0.65  <-- CONV
        O_D=      0.0000000 O_OD=      0.0023882 O_TOT=      3.6625186 <-- SPRD
 Delta: O_D= -0.5756703E-13 O_OD= -0.9081581E-13 O_TOT= -0.1483258E-12 <-- DLTA
 ------------------------------------------------------------------------------
 Cycle:    480
  WF centre and spread    1  (  0.000000,  0.000000,  3.006139 )     1.22083704
  WF centre and spread    2  ( -3.006139, -0.000000, -0.000000 )     1.22083694
  WF centre and spread    3  (  0.000000, -0.000000,  3.006140 )     1.22084246
  Sum of centres and spreads ( -3.006138, -0.000000,  6.012278 )     3.66251644
 
    480    -0.178E-12     0.0000027973        3.6625186096       0.65  <-- CONV
        O_D=      0.0000000 O_OD=      0.0023882 O_TOT=      3.6625186 <-- SPRD
 Delta: O_D= -0.6900787E-13 O_OD= -0.1088725E-12 O_TOT= -0.1780798E-12 <-- DLTA
 ------------------------------------------------------------------------------
 Cycle:    481
  WF centre and spread    1  (  0.000000,  0.000000,  3.006139 )     1.22083704
  WF centre and spread    2  ( -3.006139, -0.000000, -0.000000 )     1.22083694
  WF centre and spread    3  (  0.000000, -0.000000,  3.006140 )     1.22084246
  Sum of centres and spreads ( -3.006138, -0.000000,  6.012278 )     3.66251644
 
    481    -0.298E-13     0.0000027960        3.6625186096       0.65  <-- CONV
        O_D=      0.0000000 O_OD=      0.0023882 O_TOT=      3.6625186 <-- SPRD
 Delta: O_D= -0.1150055E-13 O_OD= -0.1814694E-13 O_TOT= -0.2975398E-13 <-- DLTA
 ------------------------------------------------------------------------------
 Cycle:    482
  WF centre and spread    1  (  0.000000,  0.000000,  3.006139 )     1.22083704
  WF centre and spread    2  ( -3.006139, -0.000000, -0.000000 )     1.22083694
  WF centre and spread    3  (  0.000000, -0.000000,  3.006140 )     1.22084246
  Sum of centres and spreads ( -3.006138, -0.000000,  6.012278 )     3.66251644
 
    482    -0.591E-13     0.0000027958        3.6625186096       0.65  <-- CONV
        O_D=      0.0000000 O_OD=      0.0023882 O_TOT=      3.6625186 <-- SPRD
 Delta: O_D= -0.2299578E-13 O_OD= -0.3628911E-13 O_TOT= -0.5906386E-13 <-- DLTA
 ------------------------------------------------------------------------------
 Cycle:    483
  WF centre and spread    1  (  0.000000,  0.000000,  3.006139 )     1.22083704
  WF centre and spread    2  ( -3.006139, -0.000000, -0.000000 )     1.22083694
  WF centre and spread    3  (  0.000000, -0.000000,  3.006140 )     1.22084246
  Sum of centres and spreads ( -3.006138, -0.000000,  6.012278 )     3.66251644
 
    483    -0.888E-13     0.0000027954        3.6625186096       0.65  <-- CONV
        O_D=      0.0000000 O_OD=      0.0023882 O_TOT=      3.6625186 <-- SPRD
 Delta: O_D= -0.3447862E-13 O_OD= -0.5439659E-13 O_TOT= -0.8881784E-13 <-- DLTA
 ------------------------------------------------------------------------------
 Cycle:    484
  WF centre and spread    1  (  0.000000,  0.000000,  3.006139 )     1.22083704
  WF centre and spread    2  ( -3.006139, -0.000000, -0.000000 )     1.22083694
  WF centre and spread    3  (  0.000000, -0.000000,  3.006140 )     1.22084246
  Sum of centres and spreads ( -3.006138, -0.000000,  6.012278 )     3.66251644
 
    484    -0.119E-12     0.0000027948        3.6625186096       0.65  <-- CONV
        O_D=      0.0000000 O_OD=      0.0023882 O_TOT=      3.6625186 <-- SPRD
 Delta: O_D= -0.4594203E-13 O_OD= -0.7248932E-13 O_TOT= -0.1185718E-12 <-- DLTA
 ------------------------------------------------------------------------------
 Cycle:    485
  WF centre and spread    1  (  0.000000,  0.000000,  3.006139 )     1.22083704
  WF centre and spread    2  ( -3.006139, -0.000000, -0.000000 )     1.22083694
  WF centre and spread    3  (  0.000000, -0.000000,  3.006140 )     1.22084246
  Sum of centres and spreads ( -3.006138, -0.000000,  6.012278 )     3.66251644
 
    485    -0.148E-12     0.0000027939        3.6625186096       0.65  <-- CONV
        O_D=      0.0000000 O_OD=      0.0023882 O_TOT=      3.6625186 <-- SPRD
 Delta: O_D= -0.5737898E-13 O_OD= -0.9053565E-13 O_TOT= -0.1478817E-12 <-- DLTA
 ------------------------------------------------------------------------------
 Cycle:    486
  WF centre and spread    1  (  0.000000,  0.000000,  3.006139 )     1.22083704
  WF centre and spread    2  ( -3.006139, -0.000000, -0.000000 )     1.22083694
  WF centre and spread    3  (  0.000000, -0.000000,  3.006140 )     1.22084246
  Sum of centres and spreads ( -3.006138, -0.000000,  6.012278 )     3.66251644
 
    486    -0.177E-12     0.0000027929        3.6625186096       0.65  <-- CONV
        O_D=      0.0000000 O_OD=      0.0023882 O_TOT=      3.6625186 <-- SPRD
 Delta: O_D= -0.6878248E-13 O_OD= -0.1085369E-12 O_TOT= -0.1771916E-12 <-- DLTA
 ------------------------------------------------------------------------------
 Cycle:    487
  WF centre and spread    1  (  0.000000,  0.000000,  3.006139 )     1.22083704
  WF centre and spread    2  ( -3.006139, -0.000000, -0.000000 )     1.22083694
  WF centre and spread    3  (  0.000000, -0.000000,  3.006140 )     1.22084246
  Sum of centres and spreads ( -3.006138, -0.000000,  6.012278 )     3.66251644
 
    487    -0.298E-13     0.0000027916        3.6625186096       0.66  <-- CONV
        O_D=      0.0000000 O_OD=      0.0023882 O_TOT=      3.6625186 <-- SPRD
 Delta: O_D= -0.1146300E-13 O_OD= -0.1808753E-13 O_TOT= -0.2975398E-13 <-- DLTA
 ------------------------------------------------------------------------------
 Cycle:    488
  WF centre and spread    1  (  0.000000,  0.000000,  3.006139 )     1.22083704
  WF centre and spread    2  ( -3.006139, -0.000000, -0.000000 )     1.22083694
  WF centre and spread    3  (  0.000000, -0.000000,  3.006140 )     1.22084246
  Sum of centres and spreads ( -3.006138, -0.000000,  6.012278 )     3.66251644
 
    488    -0.591E-13     0.0000027914        3.6625186096       0.66  <-- CONV
        O_D=      0.0000000 O_OD=      0.0023882 O_TOT=      3.6625186 <-- SPRD
 Delta: O_D= -0.2292069E-13 O_OD= -0.3617159E-13 O_TOT= -0.5906386E-13 <-- DLTA
 ------------------------------------------------------------------------------
 Cycle:    489
  WF centre and spread    1  (  0.000000,  0.000000,  3.006139 )     1.22083704
  WF centre and spread    2  ( -3.006139, -0.000000, -0.000000 )     1.22083694
  WF centre and spread    3  (  0.000000, -0.000000,  3.006140 )     1.22084246
  Sum of centres and spreads ( -3.006138, -0.000000,  6.012278 )     3.66251644
 
    489    -0.888E-13     0.0000027910        3.6625186096       0.66  <-- CONV
        O_D=      0.0000000 O_OD=      0.0023882 O_TOT=      3.6625186 <-- SPRD
 Delta: O_D= -0.3436604E-13 O_OD= -0.5423526E-13 O_TOT= -0.8881784E-13 <-- DLTA
 ------------------------------------------------------------------------------
 Cycle:    490
  WF centre and spread    1  (  0.000000,  0.000000,  3.006139 )     1.22083704
  WF centre and spread    2  ( -3.006139, -0.000000, -0.000000 )     1.22083694
  WF centre and spread    3  (  0.000000, -0.000000,  3.006140 )     1.22084246
  Sum of centres and spreads ( -3.006138, -0.000000,  6.012278 )     3.66251644
 
    490    -0.118E-12     0.0000027903        3.6625186096       0.66  <-- CONV
        O_D=      0.0000000 O_OD=      0.0023882 O_TOT=      3.6625186 <-- SPRD
 Delta: O_D= -0.4579203E-13 O_OD= -0.7226207E-13 O_TOT= -0.1176836E-12 <-- DLTA
 ------------------------------------------------------------------------------
 Cycle:    491
  WF centre and spread    1  (  0.000000,  0.000000,  3.006139 )     1.22083704
  WF centre and spread    2  ( -3.006139, -0.000000, -0.000000 )     1.22083694
  WF centre and spread    3  (  0.000000, -0.000000,  3.006140 )     1.22084246
  Sum of centres and spreads ( -3.006138, -0.000000,  6.012278 )     3.66251644
 
    491    -0.147E-12     0.0000027895        3.6625186096       0.66  <-- CONV
        O_D=      0.0000000 O_OD=      0.0023882 O_TOT=      3.6625186 <-- SPRD
 Delta: O_D= -0.5719167E-13 O_OD= -0.9025593E-13 O_TOT= -0.1474376E-12 <-- DLTA
 ------------------------------------------------------------------------------
 Cycle:    492
  WF centre and spread    1  (  0.000000,  0.000000,  3.006139 )     1.22083704
  WF centre and spread    2  ( -3.006139, -0.000000, -0.000000 )     1.22083694
  WF centre and spread    3  (  0.000000, -0.000000,  3.006140 )     1.22084246
  Sum of centres and spreads ( -3.006138, -0.000000,  6.012278 )     3.66251644
 
    492    -0.177E-12     0.0000027884        3.6625186096       0.66  <-- CONV
        O_D=      0.0000000 O_OD=      0.0023882 O_TOT=      3.6625186 <-- SPRD
 Delta: O_D= -0.6855799E-13 O_OD= -0.1081964E-12 O_TOT= -0.1767475E-12 <-- DLTA
 ------------------------------------------------------------------------------
 Cycle:    493
  WF centre and spread    1  (  0.000000,  0.000000,  3.006139 )     1.22083704
  WF centre and spread    2  ( -3.006139, -0.000000, -0.000000 )     1.22083694
  WF centre and spread    3  (  0.000000, -0.000000,  3.006140 )     1.22084246
  Sum of centres and spreads ( -3.006138, -0.000000,  6.012278 )     3.66251644
 
    493    -0.298E-13     0.0000027872        3.6625186096       0.66  <-- CONV
        O_D=      0.0000000 O_OD=      0.0023882 O_TOT=      3.6625186 <-- SPRD
 Delta: O_D= -0.1142559E-13 O_OD= -0.1803288E-13 O_TOT= -0.2975398E-13 <-- DLTA
 ------------------------------------------------------------------------------
 Cycle:    494
  WF centre and spread    1  (  0.000000,  0.000000,  3.006139 )     1.22083704
  WF centre and spread    2  ( -3.006139, -0.000000, -0.000000 )     1.22083694
  WF centre and spread    3  (  0.000000, -0.000000,  3.006140 )     1.22084246
  Sum of centres and spreads ( -3.006138, -0.000000,  6.012278 )     3.66251644
 
    494    -0.586E-13     0.0000027870        3.6625186096       0.66  <-- CONV
        O_D=      0.0000000 O_OD=      0.0023882 O_TOT=      3.6625186 <-- SPRD
 Delta: O_D= -0.2284590E-13 O_OD= -0.3605753E-13 O_TOT= -0.5861978E-13 <-- DLTA
 ------------------------------------------------------------------------------
 Cycle:    495
  WF centre and spread    1  (  0.000000,  0.000000,  3.006139 )     1.22083704
  WF centre and spread    2  ( -3.006139, -0.000000, -0.000000 )     1.22083694
  WF centre and spread    3  (  0.000000, -0.000000,  3.006140 )     1.22084246
  Sum of centres and spreads ( -3.006138, -0.000000,  6.012278 )     3.66251644
 
    495    -0.884E-13     0.0000027865        3.6625186096       0.66  <-- CONV
        O_D=      0.0000000 O_OD=      0.0023882 O_TOT=      3.6625186 <-- SPRD
 Delta: O_D= -0.3425391E-13 O_OD= -0.5406222E-13 O_TOT= -0.8837375E-13 <-- DLTA
 ------------------------------------------------------------------------------
 Cycle:    496
  WF centre and spread    1  (  0.000000,  0.000000,  3.006139 )     1.22083704
  WF centre and spread    2  ( -3.006139, -0.000000, -0.000000 )     1.22083694
  WF centre and spread    3  (  0.000000, -0.000000,  3.006140 )     1.22084246
  Sum of centres and spreads ( -3.006138, -0.000000,  6.012278 )     3.66251644
 
    496    -0.118E-12     0.0000027859        3.6625186096       0.67  <-- CONV
        O_D=      0.0000000 O_OD=      0.0023882 O_TOT=      3.6625186 <-- SPRD
 Delta: O_D= -0.4564264E-13 O_OD= -0.7203743E-13 O_TOT= -0.1176836E-12 <-- DLTA
 ------------------------------------------------------------------------------
 Cycle:    497
  WF centre and spread    1  (  0.000000,  0.000000,  3.006139 )     1.22083704
  WF centre and spread    2  ( -3.006139, -0.000000, -0.000000 )     1.22083694
  WF centre and spread    3  (  0.000000, -0.000000,  3.006140 )     1.22084246
  Sum of centres and spreads ( -3.006138, -0.000000,  6.012278 )     3.66251644
 
    497    -0.147E-12     0.0000027851        3.6625186096       0.67  <-- CONV
        O_D=      0.0000000 O_OD=      0.0023882 O_TOT=      3.6625186 <-- SPRD
 Delta: O_D= -0.5700511E-13 O_OD= -0.8997664E-13 O_TOT= -0.1469935E-12 <-- DLTA
 ------------------------------------------------------------------------------
 Cycle:    498
  WF centre and spread    1  (  0.000000,  0.000000,  3.006139 )     1.22083704
  WF centre and spread    2  ( -3.006139, -0.000000, -0.000000 )     1.22083694
  WF centre and spread    3  (  0.000000, -0.000000,  3.006140 )     1.22084246
  Sum of centres and spreads ( -3.006138, -0.000000,  6.012278 )     3.66251644
 
    498    -0.176E-12     0.0000027840        3.6625186096       0.67  <-- CONV
        O_D=      0.0000000 O_OD=      0.0023882 O_TOT=      3.6625186 <-- SPRD
 Delta: O_D= -0.6833440E-13 O_OD= -0.1078582E-12 O_TOT= -0.1763034E-12 <-- DLTA
 ------------------------------------------------------------------------------
 Cycle:    499
  WF centre and spread    1  (  0.000000,  0.000000,  3.006139 )     1.22083704
  WF centre and spread    2  ( -3.006139, -0.000000, -0.000000 )     1.22083694
  WF centre and spread    3  (  0.000000, -0.000000,  3.006140 )     1.22084246
  Sum of centres and spreads ( -3.006138, -0.000000,  6.012278 )     3.66251644
 
    499    -0.293E-13     0.0000027827        3.6625186096       0.67  <-- CONV
        O_D=      0.0000000 O_OD=      0.0023882 O_TOT=      3.6625186 <-- SPRD
 Delta: O_D= -0.1138833E-13 O_OD= -0.1797304E-13 O_TOT= -0.2930989E-13 <-- DLTA
 ------------------------------------------------------------------------------
 Cycle:    500
  WF centre and spread    1  (  0.000000,  0.000000,  3.006139 )     1.22083704
  WF centre and spread    2  ( -3.006139, -0.000000, -0.000000 )     1.22083694
  WF centre and spread    3  (  0.000000, -0.000000,  3.006140 )     1.22084246
  Sum of centres and spreads ( -3.006138, -0.000000,  6.012278 )     3.66251644
 
    500    -0.586E-13     0.0000027825        3.6625186096       0.67  <-- CONV
        O_D=      0.0000000 O_OD=      0.0023882 O_TOT=      3.6625186 <-- SPRD
 Delta: O_D= -0.2277140E-13 O_OD= -0.3594781E-13 O_TOT= -0.5861978E-13 <-- DLTA
 ------------------------------------------------------------------------------

 Writing checkpoint file mp-1784.chk... done

 Final State
  WF centre and spread    1  (  0.000000,  0.000000,  3.006139 )     1.22083704
  WF centre and spread    2  ( -3.006139, -0.000000, -0.000000 )     1.22083694
  WF centre and spread    3  (  0.000000, -0.000000,  3.006140 )     1.22084246
  Sum of centres and spreads ( -3.006138, -0.000000,  6.012278 )     3.66251644
 
         Spreads (Ang^2)       Omega I      =     3.660130420
        ================       Omega D      =     0.000000000
                               Omega OD     =     0.002388189
    Final Spread (Ang^2)       Omega Total  =     3.662518610
 ------------------------------------------------------------------------------
 Time for wannierise            0.664 (sec)

 Writing checkpoint file mp-1784.chk... done

 Time for plotting              0.000 (sec)
 Total Execution Time           1.660 (sec)

 *===========================================================================*
 |                             TIMING INFORMATION                            |
 *===========================================================================*
 |    Tag                                                Ncalls      Time (s)|
 |---------------------------------------------------------------------------|
 |kmesh: get                                        :         1         0.721|
 |overlap: allocate                                 :         1         0.001|
 |overlap: read                                     :         1         0.099|
 |wann: main                                        :         1         0.664|
 |plot: main                                        :         1         0.000|
 *---------------------------------------------------------------------------*
 
 All done: wannier90 exiting
