 
             +---------------------------------------------------+
             |                                                   |
             |                   WANNIER90                       |
             |                                                   |
             +---------------------------------------------------+
             |                                                   |
             |        Welcome to the Maximally-Localized         |
             |        Generalized Wannier Functions code         |
             |            http://www.wannier.org                 |
             |                                                   |
             |                                                   |
             |  Wannier90 Developer Group:                       |
             |    Giovanni Pizzi    (EPFL)                       |
             |    Valerio Vitale    (Cambridge)                  |
             |    David Vanderbilt  (Rutgers University)         |
             |    Nicola Marzari    (EPFL)                       |
             |    Ivo Souza         (Universidad del Pais Vasco) |
             |    Arash A. Mostofi  (Imperial College London)    |
             |    Jonathan R. Yates (University of Oxford)       |
             |                                                   |
             |  For the full list of Wannier90 3.x authors,      |
             |  please check the code documentation and the      |
             |  README on the GitHub page of the code            |
             |                                                   |
             |                                                   |
             |  Please cite                                      |
             |                                                   |
             |  [ref] "Wannier90 as a community code:            |
             |        new features and applications",            |
             |        G. Pizzi et al., J. Phys. Cond. Matt. 32,  |
             |        165902 (2020).                             |
             |        http://doi.org/10.1088/1361-648X/ab51ff    |
             |                                                   |
             |  in any publications arising from the use of      |
             |  this code. For the method please cite            |
             |                                                   |
             |  [ref] "Maximally Localized Generalised Wannier   |
             |         Functions for Composite Energy Bands"     |
             |         N. Marzari and D. Vanderbilt              |
             |         Phys. Rev. B 56 12847 (1997)              |
             |                                                   |
             |  [ref] "Maximally Localized Wannier Functions     |
             |         for Entangled Energy Bands"               |
             |         I. Souza, N. Marzari and D. Vanderbilt    |
             |         Phys. Rev. B 65 035109 (2001)             |
             |                                                   |
             |                                                   |
             | Copyright (c) 1996-2020                           |
             |        The Wannier90 Developer Group and          |
             |        individual contributors                    |
             |                                                   |
             |      Release: 3.1.0        5th March    2020      |
             |                                                   |
             | This program is free software; you can            |
             | redistribute it and/or modify it under the terms  |
             | of the GNU General Public License as published by |
             | the Free Software Foundation; either version 2 of |
             | the License, or (at your option) any later version|
             |                                                   |
             | This program is distributed in the hope that it   |
             | will be useful, but WITHOUT ANY WARRANTY; without |
             | even the implied warranty of MERCHANTABILITY or   |
             | FITNESS FOR A PARTICULAR PURPOSE. See the GNU     |
             | General Public License for more details.          |
             |                                                   |
             | You should have received a copy of the GNU General|
             | Public License along with this program; if not,   |
             | write to the Free Software Foundation, Inc.,      |
             | 675 Mass Ave, Cambridge, MA 02139, USA.           |
             |                                                   |
             +---------------------------------------------------+
             |    Execution started on  8Apr2024 at 15:15:36     |
             +---------------------------------------------------+
 
 ******************************************************************************
 * -> Using CODATA 2006 constant values                                       *
 *    (http://physics.nist.gov/cuu/Constants/index.html)                      *
 * -> Using Bohr value from CODATA                                            *
 ******************************************************************************
 

 Running in parallel on  16 CPUs

 
                                    ------
                                    SYSTEM
                                    ------
 
                              Lattice Vectors (Ang)
                    a_1    -3.691167   0.000000   3.691167
                    a_2     0.000000   3.691167   3.691167
                    a_3    -3.691167   3.691167   0.000000
 
                   Unit Cell Volume:     100.58219  (Ang^3)
 
                        Reciprocal-Space Vectors (Ang^-1)
                    b_1    -0.851111  -0.851111   0.851111
                    b_2     0.851111   0.851111   0.851111
                    b_3    -0.851111   0.851111  -0.851111
  
 *----------------------------------------------------------------------------*
 |   Site       Fractional Coordinate          Cartesian Coordinate (Ang)     |
 +----------------------------------------------------------------------------+
 | Rb   1   0.00000   0.00000   0.00000   |    0.00000   0.00000   0.00000    |
 | I    1   0.50000   0.50000   0.50000   |   -3.69117   3.69117   3.69117    |
 *----------------------------------------------------------------------------*
                                ------------
                                K-POINT GRID
                                ------------
  
             Grid size = 12 x 12 x 12      Total points = 1728
  
  
 *---------------------------------- MAIN ------------------------------------*
 |  Number of Wannier Functions               :                 3             |
 |  Number of Objective Wannier Functions     :                 3             |
 |  Number of input Bloch states              :                 3             |
 |  Output verbosity (1=low, 5=high)          :                 1             |
 |  Timing Level (1=low, 5=high)              :                 1             |
 |  Optimisation (0=memory, 3=speed)          :                 3             |
 |  Length Unit                               :               Ang             |
 |  Post-processing setup (write *.nnkp)      :                 F             |
 |  Using Gamma-only branch of algorithms     :                 F             |
 *----------------------------------------------------------------------------*
 *------------------------------- WANNIERISE ---------------------------------*
 |  Total number of iterations                :               500             |
 |  Number of CG steps before reset           :                 5             |
 |  Trial step length for line search         :             2.000             |
 |  Convergence tolerence                     :         0.100E-09             |
 |  Convergence window                        :                -1             |
 |  Iterations between writing output         :                 1             |
 |  Iterations between backing up to disk     :               100             |
 |  Write r^2_nm to file                      :                 F             |
 |  Write xyz WF centres to file              :                 F             |
 |  Write on-site energies <0n|H|0n> to file  :                 F             |
 |  Use guiding centre to control phases      :                 F             |
 |  Use phases for initial projections        :                 F             |
 *----------------------------------------------------------------------------*
 Time to read parameters        0.178 (sec)

 *---------------------------------- K-MESH ----------------------------------*
 +----------------------------------------------------------------------------+
 |                    Distance to Nearest-Neighbour Shells                    |
 |                    ------------------------------------                    |
 |          Shell             Distance (Ang^-1)          Multiplicity         |
 |          -----             -----------------          ------------         |
 |             1                   0.122847                      8            |
 |             2                   0.141852                      6            |
 |             3                   0.200609                     12            |
 |             4                   0.235235                     24            |
 |             5                   0.245695                      8            |
 |             6                   0.283704                      6            |
 |             7                   0.309159                     24            |
 |             8                   0.317190                     24            |
 |             9                   0.347465                     24            |
 |            10                   0.368542                     32            |
 |            11                   0.401218                     12            |
 |            12                   0.419603                     48            |
 |            13                   0.425555                     30            |
 |            14                   0.448575                     24            |
 |            15                   0.465092                     24            |
 |            16                   0.470469                     24            |
 |            17                   0.491389                      8            |
 |            18                   0.506512                     48            |
 |            19                   0.511454                     24            |
 |            20                   0.530761                     48            |
 |            21                   0.544792                     72            |
 |            22                   0.567407                      6            |
 |            23                   0.580554                     24            |
 |            24                   0.584870                     48            |
 |            25                   0.601826                     36            |
 |            26                   0.614236                     56            |
 |            27                   0.618318                     24            |
 |            28                   0.634381                     24            |
 |            29                   0.646166                     72            |
 |            30                   0.650047                     48            |
 |            31                   0.665344                     24            |
 |            32                   0.676590                     48            |
 |            33                   0.694929                     24            |
 |            34                   0.705704                     72            |
 |            35                   0.709259                     30            |
 |            36                   0.723305                     72            |
 +----------------------------------------------------------------------------+
 | The b-vectors are chosen automatically                                     |
 | The following shells are used:   1                                         |
 +----------------------------------------------------------------------------+
 |                        Shell   # Nearest-Neighbours                        |
 |                        -----   --------------------                        |
 |                          1               8                                 |
 +----------------------------------------------------------------------------+
 | Completeness relation is fully satisfied [Eq. (B1), PRB 56, 12847 (1997)]  |
 +----------------------------------------------------------------------------+
 |                  b_k Vectors (Ang^-1) and Weights (Ang^2)                  |
 |                  ----------------------------------------                  |
 |            No.         b_k(x)      b_k(y)      b_k(z)        w_b           |
 |            ---        --------------------------------     --------        |
 |             1        -0.070926    0.070926   -0.070926    24.848500        |
 |             2         0.070926    0.070926    0.070926    24.848500        |
 |             3        -0.070926   -0.070926    0.070926    24.848500        |
 |             4        -0.070926    0.070926    0.070926    24.848500        |
 |             5         0.070926   -0.070926    0.070926    24.848500        |
 |             6        -0.070926   -0.070926   -0.070926    24.848500        |
 |             7         0.070926    0.070926   -0.070926    24.848500        |
 |             8         0.070926   -0.070926   -0.070926    24.848500        |
 +----------------------------------------------------------------------------+
 |                           b_k Directions (Ang^-1)                          |
 |                           -----------------------                          |
 |            No.           x           y           z                         |
 |            ---        --------------------------------                     |
 |             1        -0.070926    0.070926   -0.070926                     |
 |             2         0.070926    0.070926    0.070926                     |
 |             3        -0.070926   -0.070926    0.070926                     |
 |             4        -0.070926    0.070926    0.070926                     |
 +----------------------------------------------------------------------------+
  
 Time to get kmesh              0.718 (sec)
 *============================================================================*
 |                              MEMORY ESTIMATE                               |
 |         Maximum RAM allocated during each phase of the calculation         |
 *============================================================================*
 |                            Wannierise:            7.00 Mb                  |
 |                          plot_wannier:            7.00 Mb                  |
 *----------------------------------------------------------------------------*
  
 Starting a new Wannier90 calculation ...


 Reading overlaps from mp-22903.mmn    :  Created on  8Apr2024 at 15:15:24

 Reading projections from mp-22903.amn :  Created on  8Apr2024 at 15:15:21  with SCDM

 Time to read overlaps          0.086 (sec)

 Writing checkpoint file mp-22903.chk... done

 
 *------------------------------- WANNIERISE ---------------------------------*
 +--------------------------------------------------------------------+<-- CONV
 | Iter  Delta Spread     RMS Gradient      Spread (Ang^2)      Time  |<-- CONV
 +--------------------------------------------------------------------+<-- CONV
 
 ------------------------------------------------------------------------------
 Initial State
  WF centre and spread    1  (  0.000252,  3.691786,  0.000250 )     2.48690149
  WF centre and spread    2  ( -3.691787, -0.000250,  0.000250 )     2.48690076
  WF centre and spread    3  (  0.000252, -0.000251, -3.691786 )     2.48690006
  Sum of centres and spreads ( -3.691284,  3.691285, -3.691285 )     7.46070231
 
      0     0.746E+01     0.0000000000        7.4607055763       0.00  <-- CONV
        O_D=      0.0255973 O_OD=      0.0433130 O_TOT=      7.4607056 <-- SPRD
 ------------------------------------------------------------------------------
 Cycle:      1
  WF centre and spread    1  (  0.000078,  3.691354,  0.000077 )     2.47034017
  WF centre and spread    2  ( -3.691355, -0.000077,  0.000077 )     2.47034011
  WF centre and spread    3  (  0.000078, -0.000077, -3.691354 )     2.47034130
  Sum of centres and spreads ( -3.691199,  3.691200, -3.691200 )     7.41102157
 
      1    -0.497E-01     0.0668083544        7.4110248433       0.00  <-- CONV
        O_D=      0.0034993 O_OD=      0.0157303 O_TOT=      7.4110248 <-- SPRD
 Delta: O_D= -0.2209803E-01 O_OD= -0.2758270E-01 O_TOT= -0.4968073E-01 <-- DLTA
 ------------------------------------------------------------------------------
 Cycle:      2
  WF centre and spread    1  (  0.000053,  3.691294,  0.000052 )     2.46900556
  WF centre and spread    2  ( -3.691296, -0.000052,  0.000052 )     2.46899176
  WF centre and spread    3  (  0.000053, -0.000052, -3.691294 )     2.46901172
  Sum of centres and spreads ( -3.691189,  3.691190, -3.691190 )     7.40700904
 
      2    -0.401E-02     0.0359858086        7.4070123079       0.01  <-- CONV
        O_D=      0.0017183 O_OD=      0.0134987 O_TOT=      7.4070123 <-- SPRD
 Delta: O_D= -0.1780995E-02 O_OD= -0.2231540E-02 O_TOT= -0.4012535E-02 <-- DLTA
 ------------------------------------------------------------------------------
 Cycle:      3
  WF centre and spread    1  (  0.000034,  3.691249,  0.000033 )     2.46827902
  WF centre and spread    2  ( -3.691250, -0.000033,  0.000033 )     2.46827514
  WF centre and spread    3  (  0.000034, -0.000033, -3.691249 )     2.46828054
  Sum of centres and spreads ( -3.691182,  3.691182, -3.691182 )     7.40483470
 
      3    -0.217E-02     0.0396372690        7.4048379683       0.01  <-- CONV
        O_D=      0.0008043 O_OD=      0.0122384 O_TOT=      7.4048380 <-- SPRD
 Delta: O_D= -0.9139937E-03 O_OD= -0.1260346E-02 O_TOT= -0.2174340E-02 <-- DLTA
 ------------------------------------------------------------------------------
 Cycle:      4
  WF centre and spread    1  (  0.000019,  3.691212,  0.000018 )     2.46784711
  WF centre and spread    2  ( -3.691214, -0.000018,  0.000018 )     2.46784547
  WF centre and spread    3  (  0.000019, -0.000018, -3.691212 )     2.46784976
  Sum of centres and spreads ( -3.691175,  3.691176, -3.691176 )     7.40354235
 
      4    -0.129E-02     0.0263893300        7.4035456169       0.01  <-- CONV
        O_D=      0.0003537 O_OD=      0.0113966 O_TOT=      7.4035456 <-- SPRD
 Delta: O_D= -0.4505890E-03 O_OD= -0.8417623E-03 O_TOT= -0.1292351E-02 <-- DLTA
 ------------------------------------------------------------------------------
 Cycle:      5
  WF centre and spread    1  (  0.000009,  3.691188,  0.000008 )     2.46761474
  WF centre and spread    2  ( -3.691189, -0.000008,  0.000008 )     2.46761421
  WF centre and spread    3  (  0.000009, -0.000008, -3.691188 )     2.46761584
  Sum of centres and spreads ( -3.691171,  3.691171, -3.691171 )     7.40284479
 
      5    -0.698E-03     0.0212621658        7.4028480610       0.02  <-- CONV
        O_D=      0.0001281 O_OD=      0.0109247 O_TOT=      7.4028481 <-- SPRD
 Delta: O_D= -0.2256306E-03 O_OD= -0.4719254E-03 O_TOT= -0.6975560E-03 <-- DLTA
 ------------------------------------------------------------------------------
 Cycle:      6
  WF centre and spread    1  (  0.000005,  3.691176,  0.000003 )     2.46752743
  WF centre and spread    2  ( -3.691178, -0.000004,  0.000004 )     2.46752767
  WF centre and spread    3  (  0.000005, -0.000004, -3.691176 )     2.46752784
  Sum of centres and spreads ( -3.691168,  3.691169, -3.691169 )     7.40258294
 
      6    -0.262E-03     0.0137313740        7.4025862113       0.02  <-- CONV
        O_D=      0.0000409 O_OD=      0.0107500 O_TOT=      7.4025862 <-- SPRD
 Delta: O_D= -0.8719576E-04 O_OD= -0.1746539E-03 O_TOT= -0.2618496E-03 <-- DLTA
 ------------------------------------------------------------------------------
 Cycle:      7
  WF centre and spread    1  (  0.000004,  3.691176,  0.000003 )     2.46750517
  WF centre and spread    2  ( -3.691177, -0.000003,  0.000003 )     2.46750533
  WF centre and spread    3  (  0.000004, -0.000003, -3.691176 )     2.46750523
  Sum of centres and spreads ( -3.691168,  3.691169, -3.691169 )     7.40251573
 
      7    -0.672E-04     0.0082159840        7.4025190019       0.02  <-- CONV
        O_D=      0.0000184 O_OD=      0.0107053 O_TOT=      7.4025190 <-- SPRD
 Delta: O_D= -0.2246068E-04 O_OD= -0.4474877E-04 O_TOT= -0.6720945E-04 <-- DLTA
 ------------------------------------------------------------------------------
 Cycle:      8
  WF centre and spread    1  (  0.000004,  3.691174,  0.000003 )     2.46749353
  WF centre and spread    2  ( -3.691176, -0.000003,  0.000003 )     2.46749359
  WF centre and spread    3  (  0.000004, -0.000003, -3.691174 )     2.46749361
  Sum of centres and spreads ( -3.691168,  3.691169, -3.691169 )     7.40248072
 
      8    -0.350E-04     0.0048497678        7.4024839904       0.03  <-- CONV
        O_D=      0.0000063 O_OD=      0.0106824 O_TOT=      7.4024840 <-- SPRD
 Delta: O_D= -0.1215267E-04 O_OD= -0.2285879E-04 O_TOT= -0.3501146E-04 <-- DLTA
 ------------------------------------------------------------------------------
 Cycle:      9
  WF centre and spread    1  (  0.000003,  3.691173,  0.000002 )     2.46748983
  WF centre and spread    2  ( -3.691174, -0.000002,  0.000002 )     2.46748978
  WF centre and spread    3  (  0.000003, -0.000002, -3.691173 )     2.46748984
  Sum of centres and spreads ( -3.691168,  3.691168, -3.691168 )     7.40246945
 
      9    -0.113E-04     0.0029223371        7.4024727187       0.03  <-- CONV
        O_D=      0.0000023 O_OD=      0.0106751 O_TOT=      7.4024727 <-- SPRD
 Delta: O_D= -0.3960508E-05 O_OD= -0.7311163E-05 O_TOT= -0.1127167E-04 <-- DLTA
 ------------------------------------------------------------------------------
 Cycle:     10
  WF centre and spread    1  (  0.000003,  3.691172,  0.000002 )     2.46748844
  WF centre and spread    2  ( -3.691173, -0.000002,  0.000002 )     2.46748837
  WF centre and spread    3  (  0.000003, -0.000002, -3.691172 )     2.46748844
  Sum of centres and spreads ( -3.691167,  3.691168, -3.691168 )     7.40246525
 
     10    -0.419E-05     0.0016660574        7.4024685239       0.03  <-- CONV
        O_D=      0.0000011 O_OD=      0.0106722 O_TOT=      7.4024685 <-- SPRD
 Delta: O_D= -0.1245195E-05 O_OD= -0.2949628E-05 O_TOT= -0.4194823E-05 <-- DLTA
 ------------------------------------------------------------------------------
 Cycle:     11
  WF centre and spread    1  (  0.000003,  3.691171,  0.000001 )     2.46748771
  WF centre and spread    2  ( -3.691172, -0.000002,  0.000002 )     2.46748761
  WF centre and spread    3  (  0.000003, -0.000002, -3.691171 )     2.46748770
  Sum of centres and spreads ( -3.691167,  3.691168, -3.691168 )     7.40246302
 
     11    -0.224E-05     0.0012245933        7.4024662872       0.04  <-- CONV
        O_D=      0.0000005 O_OD=      0.0106705 O_TOT=      7.4024663 <-- SPRD
 Delta: O_D= -0.5467670E-06 O_OD= -0.1689972E-05 O_TOT= -0.2236739E-05 <-- DLTA
 ------------------------------------------------------------------------------
 Cycle:     12
  WF centre and spread    1  (  0.000002,  3.691170,  0.000001 )     2.46748740
  WF centre and spread    2  ( -3.691172, -0.000001,  0.000001 )     2.46748731
  WF centre and spread    3  (  0.000002, -0.000001, -3.691170 )     2.46748739
  Sum of centres and spreads ( -3.691167,  3.691168, -3.691168 )     7.40246211
 
     12    -0.910E-06     0.0007027900        7.4024653773       0.04  <-- CONV
        O_D=      0.0000003 O_OD=      0.0106698 O_TOT=      7.4024654 <-- SPRD
 Delta: O_D= -0.1933538E-06 O_OD= -0.7164859E-06 O_TOT= -0.9098396E-06 <-- DLTA
 ------------------------------------------------------------------------------
 Cycle:     13
  WF centre and spread    1  (  0.000002,  3.691170,  0.000001 )     2.46748728
  WF centre and spread    2  ( -3.691172, -0.000001,  0.000001 )     2.46748719
  WF centre and spread    3  (  0.000002, -0.000001, -3.691170 )     2.46748727
  Sum of centres and spreads ( -3.691167,  3.691168, -3.691168 )     7.40246174
 
     13    -0.371E-06     0.0006194087        7.4024650066       0.04  <-- CONV
        O_D=      0.0000002 O_OD=      0.0106695 O_TOT=      7.4024650 <-- SPRD
 Delta: O_D= -0.1209298E-06 O_OD= -0.2498178E-06 O_TOT= -0.3707476E-06 <-- DLTA
 ------------------------------------------------------------------------------
 Cycle:     14
  WF centre and spread    1  (  0.000002,  3.691170,  0.000001 )     2.46748717
  WF centre and spread    2  ( -3.691171, -0.000001,  0.000001 )     2.46748708
  WF centre and spread    3  (  0.000002, -0.000001, -3.691170 )     2.46748717
  Sum of centres and spreads ( -3.691167,  3.691168, -3.691168 )     7.40246141
 
     14    -0.322E-06     0.0003918013        7.4024646846       0.04  <-- CONV
        O_D=      0.0000001 O_OD=      0.0106693 O_TOT=      7.4024647 <-- SPRD
 Delta: O_D= -0.8412153E-07 O_OD= -0.2378961E-06 O_TOT= -0.3220176E-06 <-- DLTA
 ------------------------------------------------------------------------------
 Cycle:     15
  WF centre and spread    1  (  0.000002,  3.691169,  0.000001 )     2.46748710
  WF centre and spread    2  ( -3.691171, -0.000001,  0.000001 )     2.46748701
  WF centre and spread    3  (  0.000002, -0.000001, -3.691169 )     2.46748710
  Sum of centres and spreads ( -3.691167,  3.691168, -3.691168 )     7.40246120
 
     15    -0.210E-06     0.0003490899        7.4024644749       0.05  <-- CONV
        O_D=      0.0000001 O_OD=      0.0106691 O_TOT=      7.4024645 <-- SPRD
 Delta: O_D= -0.4737982E-07 O_OD= -0.1622544E-06 O_TOT= -0.2096342E-06 <-- DLTA
 ------------------------------------------------------------------------------
 Cycle:     16
  WF centre and spread    1  (  0.000002,  3.691168,  0.000000 )     2.46748706
  WF centre and spread    2  ( -3.691170, -0.000000,  0.000000 )     2.46748696
  WF centre and spread    3  (  0.000002, -0.000000, -3.691168 )     2.46748705
  Sum of centres and spreads ( -3.691167,  3.691168, -3.691168 )     7.40246106
 
     16    -0.145E-06     0.0002829585        7.4024643296       0.05  <-- CONV
        O_D=      0.0000001 O_OD=      0.0106690 O_TOT=      7.4024643 <-- SPRD
 Delta: O_D= -0.3068309E-07 O_OD= -0.1146651E-06 O_TOT= -0.1453482E-06 <-- DLTA
 ------------------------------------------------------------------------------
 Cycle:     17
  WF centre and spread    1  (  0.000001,  3.691168,  0.000000 )     2.46748702
  WF centre and spread    2  ( -3.691169, -0.000000,  0.000000 )     2.46748692
  WF centre and spread    3  (  0.000001, -0.000000, -3.691168 )     2.46748701
  Sum of centres and spreads ( -3.691167,  3.691167, -3.691167 )     7.40246096
 
     17    -0.104E-06     0.0002403949        7.4024642260       0.05  <-- CONV
        O_D=      0.0000000 O_OD=      0.0106689 O_TOT=      7.4024642 <-- SPRD
 Delta: O_D= -0.2596356E-07 O_OD= -0.7762445E-07 O_TOT= -0.1035880E-06 <-- DLTA
 ------------------------------------------------------------------------------
 Cycle:     18
  WF centre and spread    1  (  0.000001,  3.691168,  0.000000 )     2.46748701
  WF centre and spread    2  ( -3.691169, -0.000000,  0.000000 )     2.46748691
  WF centre and spread    3  (  0.000001, -0.000000, -3.691168 )     2.46748700
  Sum of centres and spreads ( -3.691167,  3.691167, -3.691167 )     7.40246092
 
     18    -0.372E-07     0.0001658971        7.4024641888       0.06  <-- CONV
        O_D=      0.0000000 O_OD=      0.0106689 O_TOT=      7.4024642 <-- SPRD
 Delta: O_D= -0.1236057E-07 O_OD= -0.2482532E-07 O_TOT= -0.3718589E-07 <-- DLTA
 ------------------------------------------------------------------------------
 Cycle:     19
  WF centre and spread    1  (  0.000001,  3.691168,  0.000000 )     2.46748700
  WF centre and spread    2  ( -3.691169, -0.000000,  0.000000 )     2.46748690
  WF centre and spread    3  (  0.000001, -0.000000, -3.691168 )     2.46748700
  Sum of centres and spreads ( -3.691167,  3.691167, -3.691167 )     7.40246090
 
     19    -0.162E-07     0.0001274118        7.4024641726       0.06  <-- CONV
        O_D=      0.0000000 O_OD=      0.0106689 O_TOT=      7.4024642 <-- SPRD
 Delta: O_D= -0.5657763E-08 O_OD= -0.1054315E-07 O_TOT= -0.1620092E-07 <-- DLTA
 ------------------------------------------------------------------------------
 Cycle:     20
  WF centre and spread    1  (  0.000001,  3.691168,  0.000000 )     2.46748700
  WF centre and spread    2  ( -3.691169, -0.000000,  0.000000 )     2.46748690
  WF centre and spread    3  (  0.000001, -0.000000, -3.691168 )     2.46748699
  Sum of centres and spreads ( -3.691167,  3.691167, -3.691167 )     7.40246089
 
     20    -0.110E-07     0.0000824317        7.4024641616       0.06  <-- CONV
        O_D=      0.0000000 O_OD=      0.0106689 O_TOT=      7.4024642 <-- SPRD
 Delta: O_D= -0.3860172E-08 O_OD= -0.7175925E-08 O_TOT= -0.1103610E-07 <-- DLTA
 ------------------------------------------------------------------------------
 Cycle:     21
  WF centre and spread    1  (  0.000001,  3.691167,  0.000000 )     2.46748700
  WF centre and spread    2  ( -3.691169, -0.000000,  0.000000 )     2.46748690
  WF centre and spread    3  (  0.000001, -0.000000, -3.691167 )     2.46748699
  Sum of centres and spreads ( -3.691167,  3.691167, -3.691167 )     7.40246089
 
     21    -0.382E-08     0.0000528176        7.4024641577       0.06  <-- CONV
        O_D=      0.0000000 O_OD=      0.0106689 O_TOT=      7.4024642 <-- SPRD
 Delta: O_D= -0.5735180E-09 O_OD= -0.3249755E-08 O_TOT= -0.3823273E-08 <-- DLTA
 ------------------------------------------------------------------------------
 Cycle:     22
  WF centre and spread    1  (  0.000001,  3.691167, -0.000000 )     2.46748700
  WF centre and spread    2  ( -3.691169, -0.000000,  0.000000 )     2.46748690
  WF centre and spread    3  (  0.000001, -0.000000, -3.691167 )     2.46748699
  Sum of centres and spreads ( -3.691167,  3.691167, -3.691167 )     7.40246089
 
     22    -0.220E-08     0.0000657833        7.4024641555       0.07  <-- CONV
        O_D=      0.0000000 O_OD=      0.0106689 O_TOT=      7.4024642 <-- SPRD
 Delta: O_D= -0.6589421E-09 O_OD= -0.1543395E-08 O_TOT= -0.2202337E-08 <-- DLTA
 ------------------------------------------------------------------------------
 Cycle:     23
  WF centre and spread    1  (  0.000001,  3.691167, -0.000000 )     2.46748700
  WF centre and spread    2  ( -3.691169, -0.000000,  0.000000 )     2.46748690
  WF centre and spread    3  (  0.000001, -0.000000, -3.691167 )     2.46748699
  Sum of centres and spreads ( -3.691167,  3.691167, -3.691167 )     7.40246088
 
     23    -0.196E-08     0.0000494304        7.4024641536       0.07  <-- CONV
        O_D=      0.0000000 O_OD=      0.0106689 O_TOT=      7.4024642 <-- SPRD
 Delta: O_D= -0.4322530E-09 O_OD= -0.1530088E-08 O_TOT= -0.1962341E-08 <-- DLTA
 ------------------------------------------------------------------------------
 Cycle:     24
  WF centre and spread    1  (  0.000001,  3.691167, -0.000000 )     2.46748700
  WF centre and spread    2  ( -3.691169, -0.000000,  0.000000 )     2.46748690
  WF centre and spread    3  (  0.000001, -0.000000, -3.691167 )     2.46748699
  Sum of centres and spreads ( -3.691167,  3.691167, -3.691167 )     7.40246088
 
     24    -0.107E-08     0.0000346436        7.4024641525       0.07  <-- CONV
        O_D=      0.0000000 O_OD=      0.0106689 O_TOT=      7.4024642 <-- SPRD
 Delta: O_D= -0.3988521E-09 O_OD= -0.6720637E-09 O_TOT= -0.1070915E-08 <-- DLTA
 ------------------------------------------------------------------------------
 Cycle:     25
  WF centre and spread    1  (  0.000001,  3.691167, -0.000000 )     2.46748700
  WF centre and spread    2  ( -3.691169, -0.000000,  0.000000 )     2.46748690
  WF centre and spread    3  (  0.000001, -0.000000, -3.691167 )     2.46748699
  Sum of centres and spreads ( -3.691167,  3.691167, -3.691167 )     7.40246088
 
     25    -0.167E-11     0.0000257367        7.4024641525       0.07  <-- CONV
        O_D=      0.0000000 O_OD=      0.0106689 O_TOT=      7.4024642 <-- SPRD
 Delta: O_D= -0.6734215E-12 O_OD= -0.9918177E-12 O_TOT= -0.1665335E-11 <-- DLTA
 ------------------------------------------------------------------------------
 Cycle:     26
  WF centre and spread    1  (  0.000001,  3.691167, -0.000000 )     2.46748700
  WF centre and spread    2  ( -3.691169, -0.000000,  0.000000 )     2.46748689
  WF centre and spread    3  (  0.000001, -0.000000, -3.691167 )     2.46748699
  Sum of centres and spreads ( -3.691167,  3.691167, -3.691167 )     7.40246088
 
     26    -0.860E-09     0.0000257118        7.4024641516       0.08  <-- CONV
        O_D=      0.0000000 O_OD=      0.0106689 O_TOT=      7.4024642 <-- SPRD
 Delta: O_D= -0.3281939E-09 O_OD= -0.5314868E-09 O_TOT= -0.8596812E-09 <-- DLTA
 ------------------------------------------------------------------------------
 Cycle:     27
  WF centre and spread    1  (  0.000001,  3.691167, -0.000000 )     2.46748700
  WF centre and spread    2  ( -3.691169, -0.000000,  0.000000 )     2.46748689
  WF centre and spread    3  (  0.000001, -0.000000, -3.691167 )     2.46748699
  Sum of centres and spreads ( -3.691167,  3.691167, -3.691167 )     7.40246088
 
     27    -0.111E-11     0.0000216402        7.4024641516       0.08  <-- CONV
        O_D=      0.0000000 O_OD=      0.0106689 O_TOT=      7.4024642 <-- SPRD
 Delta: O_D= -0.4530002E-12 O_OD= -0.6601993E-12 O_TOT= -0.1112888E-11 <-- DLTA
 ------------------------------------------------------------------------------
 Cycle:     28
  WF centre and spread    1  (  0.000001,  3.691167, -0.000000 )     2.46748700
  WF centre and spread    2  ( -3.691169, -0.000000,  0.000000 )     2.46748689
  WF centre and spread    3  (  0.000001, -0.000000, -3.691167 )     2.46748699
  Sum of centres and spreads ( -3.691167,  3.691167, -3.691167 )     7.40246088
 
     28    -0.229E-11     0.0000216431        7.4024641516       0.08  <-- CONV
        O_D=      0.0000000 O_OD=      0.0106689 O_TOT=      7.4024642 <-- SPRD
 Delta: O_D= -0.9831888E-12 O_OD= -0.1306486E-11 O_TOT= -0.2289724E-11 <-- DLTA
 ------------------------------------------------------------------------------
 Cycle:     29
  WF centre and spread    1  (  0.000001,  3.691167, -0.000000 )     2.46748700
  WF centre and spread    2  ( -3.691169, -0.000000,  0.000000 )     2.46748689
  WF centre and spread    3  (  0.000001, -0.000000, -3.691167 )     2.46748699
  Sum of centres and spreads ( -3.691167,  3.691167, -3.691167 )     7.40246088
 
     29    -0.882E-09     0.0000216187        7.4024641508       0.08  <-- CONV
        O_D=      0.0000000 O_OD=      0.0106689 O_TOT=      7.4024642 <-- SPRD
 Delta: O_D= -0.3225390E-09 O_OD= -0.5598840E-09 O_TOT= -0.8824221E-09 <-- DLTA
 ------------------------------------------------------------------------------
 Cycle:     30
  WF centre and spread    1  (  0.000001,  3.691167, -0.000000 )     2.46748700
  WF centre and spread    2  ( -3.691169, -0.000000,  0.000000 )     2.46748689
  WF centre and spread    3  (  0.000001, -0.000000, -3.691167 )     2.46748699
  Sum of centres and spreads ( -3.691167,  3.691167, -3.691167 )     7.40246088
 
     30    -0.568E-12     0.0000131986        7.4024641508       0.08  <-- CONV
        O_D=      0.0000000 O_OD=      0.0106689 O_TOT=      7.4024642 <-- SPRD
 Delta: O_D= -0.2384788E-12 O_OD= -0.3288030E-12 O_TOT= -0.5675460E-12 <-- DLTA
 ------------------------------------------------------------------------------
 Cycle:     31
  WF centre and spread    1  (  0.000001,  3.691167, -0.000000 )     2.46748700
  WF centre and spread    2  ( -3.691169, -0.000000,  0.000000 )     2.46748689
  WF centre and spread    3  (  0.000001, -0.000000, -3.691167 )     2.46748699
  Sum of centres and spreads ( -3.691167,  3.691167, -3.691167 )     7.40246088
 
     31    -0.438E-12     0.0000131909        7.4024641508       0.08  <-- CONV
        O_D=      0.0000000 O_OD=      0.0106689 O_TOT=      7.4024642 <-- SPRD
 Delta: O_D= -0.2821786E-12 O_OD= -0.1551172E-12 O_TOT= -0.4378720E-12 <-- DLTA
 ------------------------------------------------------------------------------
 Cycle:     32
  WF centre and spread    1  (  0.000001,  3.691167, -0.000000 )     2.46748700
  WF centre and spread    2  ( -3.691169, -0.000000,  0.000000 )     2.46748689
  WF centre and spread    3  (  0.000001, -0.000000, -3.691167 )     2.46748699
  Sum of centres and spreads ( -3.691167,  3.691167, -3.691167 )     7.40246088
 
     32    -0.870E-12     0.0000131696        7.4024641508       0.08  <-- CONV
        O_D=      0.0000000 O_OD=      0.0106689 O_TOT=      7.4024642 <-- SPRD
 Delta: O_D= -0.5611981E-12 O_OD= -0.3092058E-12 O_TOT= -0.8704149E-12 <-- DLTA
 ------------------------------------------------------------------------------
 Cycle:     33
  WF centre and spread    1  (  0.000001,  3.691167, -0.000000 )     2.46748700
  WF centre and spread    2  ( -3.691169, -0.000000,  0.000000 )     2.46748689
  WF centre and spread    3  (  0.000001, -0.000000, -3.691167 )     2.46748699
  Sum of centres and spreads ( -3.691167,  3.691167, -3.691167 )     7.40246088
 
     33    -0.132E-09     0.0000131273        7.4024641506       0.09  <-- CONV
        O_D=      0.0000000 O_OD=      0.0106689 O_TOT=      7.4024642 <-- SPRD
 Delta: O_D= -0.6954947E-10 O_OD= -0.6236326E-10 O_TOT= -0.1319123E-09 <-- DLTA
 ------------------------------------------------------------------------------
 Cycle:     34
  WF centre and spread    1  (  0.000001,  3.691167, -0.000000 )     2.46748700
  WF centre and spread    2  ( -3.691169, -0.000000,  0.000000 )     2.46748689
  WF centre and spread    3  (  0.000001, -0.000000, -3.691167 )     2.46748699
  Sum of centres and spreads ( -3.691167,  3.691167, -3.691167 )     7.40246088
 
     34    -0.171E-12     0.0000068749        7.4024641506       0.09  <-- CONV
        O_D=      0.0000000 O_OD=      0.0106689 O_TOT=      7.4024642 <-- SPRD
 Delta: O_D= -0.2595940E-13 O_OD= -0.1447696E-12 O_TOT= -0.1705303E-12 <-- DLTA
 ------------------------------------------------------------------------------
 Cycle:     35
  WF centre and spread    1  (  0.000001,  3.691167, -0.000000 )     2.46748700
  WF centre and spread    2  ( -3.691169, -0.000000,  0.000000 )     2.46748689
  WF centre and spread    3  (  0.000001, -0.000000, -3.691167 )     2.46748699
  Sum of centres and spreads ( -3.691167,  3.691167, -3.691167 )     7.40246088
 
     35    -0.290E-12     0.0000068772        7.4024641506       0.09  <-- CONV
        O_D=      0.0000000 O_OD=      0.0106689 O_TOT=      7.4024642 <-- SPRD
 Delta: O_D= -0.6619648E-13 O_OD= -0.2233092E-12 O_TOT= -0.2895462E-12 <-- DLTA
 ------------------------------------------------------------------------------
 Cycle:     36
  WF centre and spread    1  (  0.000001,  3.691167, -0.000000 )     2.46748700
  WF centre and spread    2  ( -3.691169, -0.000000,  0.000000 )     2.46748689
  WF centre and spread    3  (  0.000001, -0.000000, -3.691167 )     2.46748699
  Sum of centres and spreads ( -3.691167,  3.691167, -3.691167 )     7.40246088
 
     36    -0.409E-12     0.0000068770        7.4024641506       0.09  <-- CONV
        O_D=      0.0000000 O_OD=      0.0106689 O_TOT=      7.4024642 <-- SPRD
 Delta: O_D= -0.1065098E-12 O_OD= -0.3015591E-12 O_TOT= -0.4085621E-12 <-- DLTA
 ------------------------------------------------------------------------------
 Cycle:     37
  WF centre and spread    1  (  0.000001,  3.691167, -0.000000 )     2.46748700
  WF centre and spread    2  ( -3.691169, -0.000000,  0.000000 )     2.46748689
  WF centre and spread    3  (  0.000001, -0.000000, -3.691167 )     2.46748699
  Sum of centres and spreads ( -3.691167,  3.691167, -3.691167 )     7.40246088
 
     37    -0.118E-12     0.0000068741        7.4024641506       0.09  <-- CONV
        O_D=      0.0000000 O_OD=      0.0106689 O_TOT=      7.4024642 <-- SPRD
 Delta: O_D= -0.4042737E-13 O_OD= -0.7841124E-13 O_TOT= -0.1181277E-12 <-- DLTA
 ------------------------------------------------------------------------------
 Cycle:     38
  WF centre and spread    1  (  0.000001,  3.691167, -0.000000 )     2.46748700
  WF centre and spread    2  ( -3.691169, -0.000000,  0.000000 )     2.46748689
  WF centre and spread    3  (  0.000001, -0.000000, -3.691167 )     2.46748699
  Sum of centres and spreads ( -3.691167,  3.691167, -3.691167 )     7.40246088
 
     38    -0.238E-12     0.0000068714        7.4024641506       0.09  <-- CONV
        O_D=      0.0000000 O_OD=      0.0106689 O_TOT=      7.4024642 <-- SPRD
 Delta: O_D= -0.8069302E-13 O_OD= -0.1566976E-12 O_TOT= -0.2380318E-12 <-- DLTA
 ------------------------------------------------------------------------------
 Cycle:     39
  WF centre and spread    1  (  0.000001,  3.691167, -0.000000 )     2.46748700
  WF centre and spread    2  ( -3.691169, -0.000000,  0.000000 )     2.46748689
  WF centre and spread    3  (  0.000001, -0.000000, -3.691167 )     2.46748699
  Sum of centres and spreads ( -3.691167,  3.691167, -3.691167 )     7.40246088
 
     39    -0.355E-12     0.0000068661        7.4024641506       0.10  <-- CONV
        O_D=      0.0000000 O_OD=      0.0106689 O_TOT=      7.4024642 <-- SPRD
 Delta: O_D= -0.1206061E-12 O_OD= -0.2347289E-12 O_TOT= -0.3552714E-12 <-- DLTA
 ------------------------------------------------------------------------------
 Cycle:     40
  WF centre and spread    1  (  0.000001,  3.691167, -0.000000 )     2.46748700
  WF centre and spread    2  ( -3.691169, -0.000000,  0.000000 )     2.46748689
  WF centre and spread    3  (  0.000001, -0.000000, -3.691167 )     2.46748699
  Sum of centres and spreads ( -3.691167,  3.691167, -3.691167 )     7.40246088
 
     40    -0.473E-12     0.0000068582        7.4024641506       0.10  <-- CONV
        O_D=      0.0000000 O_OD=      0.0106689 O_TOT=      7.4024642 <-- SPRD
 Delta: O_D= -0.1599804E-12 O_OD= -0.3122849E-12 O_TOT= -0.4725109E-12 <-- DLTA
 ------------------------------------------------------------------------------
 Cycle:     41
  WF centre and spread    1  (  0.000001,  3.691167, -0.000000 )     2.46748700
  WF centre and spread    2  ( -3.691169, -0.000000,  0.000000 )     2.46748689
  WF centre and spread    3  (  0.000001, -0.000000, -3.691167 )     2.46748699
  Sum of centres and spreads ( -3.691167,  3.691167, -3.691167 )     7.40246088
 
     41    -0.588E-12     0.0000068478        7.4024641506       0.10  <-- CONV
        O_D=      0.0000000 O_OD=      0.0106689 O_TOT=      7.4024642 <-- SPRD
 Delta: O_D= -0.1986374E-12 O_OD= -0.3892355E-12 O_TOT= -0.5879741E-12 <-- DLTA
 ------------------------------------------------------------------------------
 Cycle:     42
  WF centre and spread    1  (  0.000001,  3.691167, -0.000000 )     2.46748700
  WF centre and spread    2  ( -3.691169, -0.000000,  0.000000 )     2.46748689
  WF centre and spread    3  (  0.000001, -0.000000, -3.691167 )     2.46748699
  Sum of centres and spreads ( -3.691167,  3.691167, -3.691167 )     7.40246088
 
     42    -0.702E-12     0.0000068349        7.4024641506       0.10  <-- CONV
        O_D=      0.0000000 O_OD=      0.0106689 O_TOT=      7.4024642 <-- SPRD
 Delta: O_D= -0.2364080E-12 O_OD= -0.4654055E-12 O_TOT= -0.7016610E-12 <-- DLTA
 ------------------------------------------------------------------------------
 Cycle:     43
  WF centre and spread    1  (  0.000001,  3.691167, -0.000000 )     2.46748700
  WF centre and spread    2  ( -3.691169, -0.000000,  0.000000 )     2.46748689
  WF centre and spread    3  (  0.000001, -0.000000, -3.691167 )     2.46748699
  Sum of centres and spreads ( -3.691167,  3.691167, -3.691167 )     7.40246088
 
     43    -0.116E-12     0.0000068196        7.4024641506       0.10  <-- CONV
        O_D=      0.0000000 O_OD=      0.0106689 O_TOT=      7.4024642 <-- SPRD
 Delta: O_D= -0.3909690E-13 O_OD= -0.7786480E-13 O_TOT= -0.1163514E-12 <-- DLTA
 ------------------------------------------------------------------------------
 Cycle:     44
  WF centre and spread    1  (  0.000001,  3.691167, -0.000000 )     2.46748700
  WF centre and spread    2  ( -3.691169, -0.000000,  0.000000 )     2.46748689
  WF centre and spread    3  (  0.000001, -0.000000, -3.691167 )     2.46748699
  Sum of centres and spreads ( -3.691167,  3.691167, -3.691167 )     7.40246088
 
     44    -0.234E-12     0.0000068171        7.4024641506       0.10  <-- CONV
        O_D=      0.0000000 O_OD=      0.0106689 O_TOT=      7.4024642 <-- SPRD
 Delta: O_D= -0.7804500E-13 O_OD= -0.1556238E-12 O_TOT= -0.2344791E-12 <-- DLTA
 ------------------------------------------------------------------------------
 Cycle:     45
  WF centre and spread    1  (  0.000001,  3.691167, -0.000000 )     2.46748700
  WF centre and spread    2  ( -3.691169, -0.000000,  0.000000 )     2.46748689
  WF centre and spread    3  (  0.000001, -0.000000, -3.691167 )     2.46748699
  Sum of centres and spreads ( -3.691167,  3.691167, -3.691167 )     7.40246088
 
     45    -0.349E-12     0.0000068121        7.4024641506       0.10  <-- CONV
        O_D=      0.0000000 O_OD=      0.0106689 O_TOT=      7.4024642 <-- SPRD
 Delta: O_D= -0.1166687E-12 O_OD= -0.2331139E-12 O_TOT= -0.3490541E-12 <-- DLTA
 ------------------------------------------------------------------------------
 Cycle:     46
  WF centre and spread    1  (  0.000001,  3.691167, -0.000000 )     2.46748700
  WF centre and spread    2  ( -3.691169, -0.000000,  0.000000 )     2.46748689
  WF centre and spread    3  (  0.000001, -0.000000, -3.691167 )     2.46748699
  Sum of centres and spreads ( -3.691167,  3.691167, -3.691167 )     7.40246088
 
     46    -0.465E-12     0.0000068047        7.4024641506       0.10  <-- CONV
        O_D=      0.0000000 O_OD=      0.0106689 O_TOT=      7.4024642 <-- SPRD
 Delta: O_D= -0.1547965E-12 O_OD= -0.3101495E-12 O_TOT= -0.4654055E-12 <-- DLTA
 ------------------------------------------------------------------------------
 Cycle:     47
  WF centre and spread    1  (  0.000001,  3.691167, -0.000000 )     2.46748700
  WF centre and spread    2  ( -3.691169, -0.000000,  0.000000 )     2.46748689
  WF centre and spread    3  (  0.000001, -0.000000, -3.691167 )     2.46748699
  Sum of centres and spreads ( -3.691167,  3.691167, -3.691167 )     7.40246088
 
     47    -0.579E-12     0.0000067948        7.4024641506       0.11  <-- CONV
        O_D=      0.0000000 O_OD=      0.0106689 O_TOT=      7.4024642 <-- SPRD
 Delta: O_D= -0.1922638E-12 O_OD= -0.3866230E-12 O_TOT= -0.5790923E-12 <-- DLTA
 ------------------------------------------------------------------------------
 Cycle:     48
  WF centre and spread    1  (  0.000001,  3.691167, -0.000000 )     2.46748700
  WF centre and spread    2  ( -3.691169, -0.000000,  0.000000 )     2.46748689
  WF centre and spread    3  (  0.000001, -0.000000, -3.691167 )     2.46748699
  Sum of centres and spreads ( -3.691167,  3.691167, -3.691167 )     7.40246088
 
     48    -0.691E-12     0.0000067826        7.4024641506       0.11  <-- CONV
        O_D=      0.0000000 O_OD=      0.0106689 O_TOT=      7.4024642 <-- SPRD
 Delta: O_D= -0.2289147E-12 O_OD= -0.4623784E-12 O_TOT= -0.6910028E-12 <-- DLTA
 ------------------------------------------------------------------------------
 Cycle:     49
  WF centre and spread    1  (  0.000001,  3.691167, -0.000000 )     2.46748700
  WF centre and spread    2  ( -3.691169, -0.000000,  0.000000 )     2.46748689
  WF centre and spread    3  (  0.000001, -0.000000, -3.691167 )     2.46748699
  Sum of centres and spreads ( -3.691167,  3.691167, -3.691167 )     7.40246088
 
     49    -0.115E-12     0.0000067682        7.4024641506       0.11  <-- CONV
        O_D=      0.0000000 O_OD=      0.0106689 O_TOT=      7.4024642 <-- SPRD
 Delta: O_D= -0.3787203E-13 O_OD= -0.7734091E-13 O_TOT= -0.1145750E-12 <-- DLTA
 ------------------------------------------------------------------------------
 Cycle:     50
  WF centre and spread    1  (  0.000001,  3.691167, -0.000000 )     2.46748700
  WF centre and spread    2  ( -3.691169, -0.000000,  0.000000 )     2.46748689
  WF centre and spread    3  (  0.000001, -0.000000, -3.691167 )     2.46748699
  Sum of centres and spreads ( -3.691167,  3.691167, -3.691167 )     7.40246088
 
     50    -0.231E-12     0.0000067658        7.4024641506       0.11  <-- CONV
        O_D=      0.0000000 O_OD=      0.0106689 O_TOT=      7.4024642 <-- SPRD
 Delta: O_D= -0.7560698E-13 O_OD= -0.1545535E-12 O_TOT= -0.2309264E-12 <-- DLTA
 ------------------------------------------------------------------------------
 Cycle:     51
  WF centre and spread    1  (  0.000001,  3.691167, -0.000000 )     2.46748700
  WF centre and spread    2  ( -3.691169, -0.000000,  0.000000 )     2.46748689
  WF centre and spread    3  (  0.000001, -0.000000, -3.691167 )     2.46748699
  Sum of centres and spreads ( -3.691167,  3.691167, -3.691167 )     7.40246088
 
     51    -0.345E-12     0.0000067611        7.4024641506       0.11  <-- CONV
        O_D=      0.0000000 O_OD=      0.0106689 O_TOT=      7.4024642 <-- SPRD
 Delta: O_D= -0.1130430E-12 O_OD= -0.2315370E-12 O_TOT= -0.3446132E-12 <-- DLTA
 ------------------------------------------------------------------------------
 Cycle:     52
  WF centre and spread    1  (  0.000001,  3.691167, -0.000000 )     2.46748700
  WF centre and spread    2  ( -3.691169, -0.000000,  0.000000 )     2.46748689
  WF centre and spread    3  (  0.000001, -0.000000, -3.691167 )     2.46748699
  Sum of centres and spreads ( -3.691167,  3.691167, -3.691167 )     7.40246088
 
     52    -0.458E-12     0.0000067541        7.4024641506       0.11  <-- CONV
        O_D=      0.0000000 O_OD=      0.0106689 O_TOT=      7.4024642 <-- SPRD
 Delta: O_D= -0.1500220E-12 O_OD= -0.3081060E-12 O_TOT= -0.4583001E-12 <-- DLTA
 ------------------------------------------------------------------------------
 Cycle:     53
  WF centre and spread    1  (  0.000001,  3.691167, -0.000000 )     2.46748700
  WF centre and spread    2  ( -3.691169, -0.000000,  0.000000 )     2.46748689
  WF centre and spread    3  (  0.000001, -0.000000, -3.691167 )     2.46748699
  Sum of centres and spreads ( -3.691167,  3.691167, -3.691167 )     7.40246088
 
     53    -0.570E-12     0.0000067448        7.4024641506       0.11  <-- CONV
        O_D=      0.0000000 O_OD=      0.0106689 O_TOT=      7.4024642 <-- SPRD
 Delta: O_D= -0.1863918E-12 O_OD= -0.3840973E-12 O_TOT= -0.5702105E-12 <-- DLTA
 ------------------------------------------------------------------------------
 Cycle:     54
  WF centre and spread    1  (  0.000001,  3.691167, -0.000000 )     2.46748700
  WF centre and spread    2  ( -3.691169, -0.000000,  0.000000 )     2.46748689
  WF centre and spread    3  (  0.000001, -0.000000, -3.691167 )     2.46748699
  Sum of centres and spreads ( -3.691167,  3.691167, -3.691167 )     7.40246088
 
     54    -0.682E-12     0.0000067333        7.4024641506       0.12  <-- CONV
        O_D=      0.0000000 O_OD=      0.0106689 O_TOT=      7.4024642 <-- SPRD
 Delta: O_D= -0.2220083E-12 O_OD= -0.4593877E-12 O_TOT= -0.6821210E-12 <-- DLTA
 ------------------------------------------------------------------------------
 Cycle:     55
  WF centre and spread    1  (  0.000001,  3.691167, -0.000000 )     2.46748700
  WF centre and spread    2  ( -3.691169, -0.000000,  0.000000 )     2.46748689
  WF centre and spread    3  (  0.000001, -0.000000, -3.691167 )     2.46748699
  Sum of centres and spreads ( -3.691167,  3.691167, -3.691167 )     7.40246088
 
     55    -0.113E-12     0.0000067196        7.4024641506       0.12  <-- CONV
        O_D=      0.0000000 O_OD=      0.0106689 O_TOT=      7.4024642 <-- SPRD
 Delta: O_D= -0.3674317E-13 O_OD= -0.7679794E-13 O_TOT= -0.1127987E-12 <-- DLTA
 ------------------------------------------------------------------------------
 Cycle:     56
  WF centre and spread    1  (  0.000001,  3.691167, -0.000000 )     2.46748700
  WF centre and spread    2  ( -3.691169, -0.000000,  0.000000 )     2.46748689
  WF centre and spread    3  (  0.000001, -0.000000, -3.691167 )     2.46748699
  Sum of centres and spreads ( -3.691167,  3.691167, -3.691167 )     7.40246088
 
     56    -0.227E-12     0.0000067174        7.4024641506       0.12  <-- CONV
        O_D=      0.0000000 O_OD=      0.0106689 O_TOT=      7.4024642 <-- SPRD
 Delta: O_D= -0.7335987E-13 O_OD= -0.1535386E-12 O_TOT= -0.2273737E-12 <-- DLTA
 ------------------------------------------------------------------------------
 Cycle:     57
  WF centre and spread    1  (  0.000001,  3.691167, -0.000000 )     2.46748700
  WF centre and spread    2  ( -3.691169, -0.000000,  0.000000 )     2.46748689
  WF centre and spread    3  (  0.000001, -0.000000, -3.691167 )     2.46748699
  Sum of centres and spreads ( -3.691167,  3.691167, -3.691167 )     7.40246088
 
     57    -0.339E-12     0.0000067129        7.4024641506       0.12  <-- CONV
        O_D=      0.0000000 O_OD=      0.0106689 O_TOT=      7.4024642 <-- SPRD
 Delta: O_D= -0.1097007E-12 O_OD= -0.2300053E-12 O_TOT= -0.3392842E-12 <-- DLTA
 ------------------------------------------------------------------------------
 Cycle:     58
  WF centre and spread    1  (  0.000001,  3.691167, -0.000000 )     2.46748700
  WF centre and spread    2  ( -3.691169, -0.000000,  0.000000 )     2.46748689
  WF centre and spread    3  (  0.000001, -0.000000, -3.691167 )     2.46748699
  Sum of centres and spreads ( -3.691167,  3.691167, -3.691167 )     7.40246088
 
     58    -0.452E-12     0.0000067063        7.4024641506       0.12  <-- CONV
        O_D=      0.0000000 O_OD=      0.0106689 O_TOT=      7.4024642 <-- SPRD
 Delta: O_D= -0.1456196E-12 O_OD= -0.3060625E-12 O_TOT= -0.4520828E-12 <-- DLTA
 ------------------------------------------------------------------------------
 Cycle:     59
  WF centre and spread    1  (  0.000001,  3.691167, -0.000000 )     2.46748700
  WF centre and spread    2  ( -3.691169, -0.000000,  0.000000 )     2.46748689
  WF centre and spread    3  (  0.000001, -0.000000, -3.691167 )     2.46748699
  Sum of centres and spreads ( -3.691167,  3.691167, -3.691167 )     7.40246088
 
     59    -0.562E-12     0.0000066975        7.4024641506       0.12  <-- CONV
        O_D=      0.0000000 O_OD=      0.0106689 O_TOT=      7.4024642 <-- SPRD
 Delta: O_D= -0.1809759E-12 O_OD= -0.3816097E-12 O_TOT= -0.5622169E-12 <-- DLTA
 ------------------------------------------------------------------------------
 Cycle:     60
  WF centre and spread    1  (  0.000001,  3.691167, -0.000000 )     2.46748700
  WF centre and spread    2  ( -3.691169, -0.000000,  0.000000 )     2.46748689
  WF centre and spread    3  (  0.000001, -0.000000, -3.691167 )     2.46748699
  Sum of centres and spreads ( -3.691167,  3.691167, -3.691167 )     7.40246088
 
     60    -0.672E-12     0.0000066866        7.4024641506       0.12  <-- CONV
        O_D=      0.0000000 O_OD=      0.0106689 O_TOT=      7.4024642 <-- SPRD
 Delta: O_D= -0.2156360E-12 O_OD= -0.4564717E-12 O_TOT= -0.6723511E-12 <-- DLTA
 ------------------------------------------------------------------------------
 Cycle:     61
  WF centre and spread    1  (  0.000001,  3.691167, -0.000000 )     2.46748700
  WF centre and spread    2  ( -3.691169, -0.000000,  0.000000 )     2.46748689
  WF centre and spread    3  (  0.000001, -0.000000, -3.691167 )     2.46748699
  Sum of centres and spreads ( -3.691167,  3.691167, -3.691167 )     7.40246088
 
     61    -0.112E-12     0.0000066736        7.4024641506       0.12  <-- CONV
        O_D=      0.0000000 O_OD=      0.0106689 O_TOT=      7.4024642 <-- SPRD
 Delta: O_D= -0.3570160E-13 O_OD= -0.7632263E-13 O_TOT= -0.1119105E-12 <-- DLTA
 ------------------------------------------------------------------------------
 Cycle:     62
  WF centre and spread    1  (  0.000001,  3.691167, -0.000000 )     2.46748700
  WF centre and spread    2  ( -3.691169, -0.000000,  0.000000 )     2.46748689
  WF centre and spread    3  (  0.000001, -0.000000, -3.691167 )     2.46748699
  Sum of centres and spreads ( -3.691167,  3.691167, -3.691167 )     7.40246088
 
     62    -0.224E-12     0.0000066715        7.4024641506       0.13  <-- CONV
        O_D=      0.0000000 O_OD=      0.0106689 O_TOT=      7.4024642 <-- SPRD
 Delta: O_D= -0.7128634E-13 O_OD= -0.1525238E-12 O_TOT= -0.2238210E-12 <-- DLTA
 ------------------------------------------------------------------------------
 Cycle:     63
  WF centre and spread    1  (  0.000001,  3.691167, -0.000000 )     2.46748700
  WF centre and spread    2  ( -3.691169, -0.000000,  0.000000 )     2.46748689
  WF centre and spread    3  (  0.000001, -0.000000, -3.691167 )     2.46748699
  Sum of centres and spreads ( -3.691167,  3.691167, -3.691167 )     7.40246088
 
     63    -0.335E-12     0.0000066673        7.4024641506       0.13  <-- CONV
        O_D=      0.0000000 O_OD=      0.0106689 O_TOT=      7.4024642 <-- SPRD
 Delta: O_D= -0.1066161E-12 O_OD= -0.2285064E-12 O_TOT= -0.3348433E-12 <-- DLTA
 ------------------------------------------------------------------------------
 Cycle:     64
  WF centre and spread    1  (  0.000001,  3.691167, -0.000000 )     2.46748700
  WF centre and spread    2  ( -3.691169, -0.000000,  0.000000 )     2.46748689
  WF centre and spread    3  (  0.000001, -0.000000, -3.691167 )     2.46748699
  Sum of centres and spreads ( -3.691167,  3.691167, -3.691167 )     7.40246088
 
     64    -0.445E-12     0.0000066610        7.4024641506       0.13  <-- CONV
        O_D=      0.0000000 O_OD=      0.0106689 O_TOT=      7.4024642 <-- SPRD
 Delta: O_D= -0.1415556E-12 O_OD= -0.3041074E-12 O_TOT= -0.4449774E-12 <-- DLTA
 ------------------------------------------------------------------------------
 Cycle:     65
  WF centre and spread    1  (  0.000001,  3.691167, -0.000000 )     2.46748700
  WF centre and spread    2  ( -3.691169, -0.000000,  0.000000 )     2.46748689
  WF centre and spread    3  (  0.000001, -0.000000, -3.691167 )     2.46748699
  Sum of centres and spreads ( -3.691167,  3.691167, -3.691167 )     7.40246088
 
     65    -0.556E-12     0.0000066527        7.4024641506       0.13  <-- CONV
        O_D=      0.0000000 O_OD=      0.0106689 O_TOT=      7.4024642 <-- SPRD
 Delta: O_D= -0.1759748E-12 O_OD= -0.3791880E-12 O_TOT= -0.5559997E-12 <-- DLTA
 ------------------------------------------------------------------------------
 Cycle:     66
  WF centre and spread    1  (  0.000001,  3.691167, -0.000000 )     2.46748700
  WF centre and spread    2  ( -3.691169, -0.000000,  0.000000 )     2.46748689
  WF centre and spread    3  (  0.000001, -0.000000, -3.691167 )     2.46748699
  Sum of centres and spreads ( -3.691167,  3.691167, -3.691167 )     7.40246088
 
     66    -0.663E-12     0.0000066423        7.4024641506       0.13  <-- CONV
        O_D=      0.0000000 O_OD=      0.0106689 O_TOT=      7.4024642 <-- SPRD
 Delta: O_D= -0.2097495E-12 O_OD= -0.4535990E-12 O_TOT= -0.6634693E-12 <-- DLTA
 ------------------------------------------------------------------------------
 Cycle:     67
  WF centre and spread    1  (  0.000001,  3.691167, -0.000000 )     2.46748700
  WF centre and spread    2  ( -3.691169, -0.000000,  0.000000 )     2.46748689
  WF centre and spread    3  (  0.000001, -0.000000, -3.691167 )     2.46748699
  Sum of centres and spreads ( -3.691167,  3.691167, -3.691167 )     7.40246088
 
     67    -0.110E-12     0.0000066300        7.4024641506       0.13  <-- CONV
        O_D=      0.0000000 O_OD=      0.0106689 O_TOT=      7.4024642 <-- SPRD
 Delta: O_D= -0.3473939E-13 O_OD= -0.7581956E-13 O_TOT= -0.1101341E-12 <-- DLTA
 ------------------------------------------------------------------------------
 Cycle:     68
  WF centre and spread    1  (  0.000001,  3.691167, -0.000000 )     2.46748700
  WF centre and spread    2  ( -3.691169, -0.000000,  0.000000 )     2.46748689
  WF centre and spread    3  (  0.000001, -0.000000, -3.691167 )     2.46748699
  Sum of centres and spreads ( -3.691167,  3.691167, -3.691167 )     7.40246088
 
     68    -0.221E-12     0.0000066280        7.4024641506       0.13  <-- CONV
        O_D=      0.0000000 O_OD=      0.0106689 O_TOT=      7.4024642 <-- SPRD
 Delta: O_D= -0.6937064E-13 O_OD= -0.1515333E-12 O_TOT= -0.2211564E-12 <-- DLTA
 ------------------------------------------------------------------------------
 Cycle:     69
  WF centre and spread    1  (  0.000001,  3.691167, -0.000000 )     2.46748700
  WF centre and spread    2  ( -3.691169, -0.000000,  0.000000 )     2.46748689
  WF centre and spread    3  (  0.000001, -0.000000, -3.691167 )     2.46748699
  Sum of centres and spreads ( -3.691167,  3.691167, -3.691167 )     7.40246088
 
     69    -0.331E-12     0.0000066240        7.4024641506       0.13  <-- CONV
        O_D=      0.0000000 O_OD=      0.0106689 O_TOT=      7.4024642 <-- SPRD
 Delta: O_D= -0.1037658E-12 O_OD= -0.2270528E-12 O_TOT= -0.3312906E-12 <-- DLTA
 ------------------------------------------------------------------------------
 Cycle:     70
  WF centre and spread    1  (  0.000001,  3.691167, -0.000000 )     2.46748700
  WF centre and spread    2  ( -3.691169, -0.000000,  0.000000 )     2.46748689
  WF centre and spread    3  (  0.000001, -0.000000, -3.691167 )     2.46748699
  Sum of centres and spreads ( -3.691167,  3.691167, -3.691167 )     7.40246088
 
     70    -0.440E-12     0.0000066181        7.4024641506       0.14  <-- CONV
        O_D=      0.0000000 O_OD=      0.0106689 O_TOT=      7.4024642 <-- SPRD
 Delta: O_D= -0.1377996E-12 O_OD= -0.3021593E-12 O_TOT= -0.4396483E-12 <-- DLTA
 ------------------------------------------------------------------------------
 Cycle:     71
  WF centre and spread    1  (  0.000001,  3.691167, -0.000000 )     2.46748700
  WF centre and spread    2  ( -3.691169, -0.000000,  0.000000 )     2.46748689
  WF centre and spread    3  (  0.000001, -0.000000, -3.691167 )     2.46748699
  Sum of centres and spreads ( -3.691167,  3.691167, -3.691167 )     7.40246088
 
     71    -0.548E-12     0.0000066101        7.4024641506       0.14  <-- CONV
        O_D=      0.0000000 O_OD=      0.0106689 O_TOT=      7.4024642 <-- SPRD
 Delta: O_D= -0.1713511E-12 O_OD= -0.3767976E-12 O_TOT= -0.5480061E-12 <-- DLTA
 ------------------------------------------------------------------------------
 Cycle:     72
  WF centre and spread    1  (  0.000001,  3.691167, -0.000000 )     2.46748700
  WF centre and spread    2  ( -3.691169, -0.000000,  0.000000 )     2.46748689
  WF centre and spread    3  (  0.000001, -0.000000, -3.691167 )     2.46748699
  Sum of centres and spreads ( -3.691167,  3.691167, -3.691167 )     7.40246088
 
     72    -0.655E-12     0.0000066003        7.4024641506       0.14  <-- CONV
        O_D=      0.0000000 O_OD=      0.0106689 O_TOT=      7.4024642 <-- SPRD
 Delta: O_D= -0.2043051E-12 O_OD= -0.4508286E-12 O_TOT= -0.6554757E-12 <-- DLTA
 ------------------------------------------------------------------------------
 Cycle:     73
  WF centre and spread    1  (  0.000001,  3.691167, -0.000000 )     2.46748700
  WF centre and spread    2  ( -3.691169, -0.000000,  0.000000 )     2.46748689
  WF centre and spread    3  (  0.000001, -0.000000, -3.691167 )     2.46748699
  Sum of centres and spreads ( -3.691167,  3.691167, -3.691167 )     7.40246088
 
     73    -0.109E-12     0.0000065887        7.4024641506       0.14  <-- CONV
        O_D=      0.0000000 O_OD=      0.0106689 O_TOT=      7.4024642 <-- SPRD
 Delta: O_D= -0.3384937E-13 O_OD= -0.7533210E-13 O_TOT= -0.1092459E-12 <-- DLTA
 ------------------------------------------------------------------------------
 Cycle:     74
  WF centre and spread    1  (  0.000001,  3.691167, -0.000000 )     2.46748700
  WF centre and spread    2  ( -3.691169, -0.000000,  0.000000 )     2.46748689
  WF centre and spread    3  (  0.000001, -0.000000, -3.691167 )     2.46748699
  Sum of centres and spreads ( -3.691167,  3.691167, -3.691167 )     7.40246088
 
     74    -0.218E-12     0.0000065868        7.4024641506       0.14  <-- CONV
        O_D=      0.0000000 O_OD=      0.0106689 O_TOT=      7.4024642 <-- SPRD
 Delta: O_D= -0.6759850E-13 O_OD= -0.1505653E-12 O_TOT= -0.2176037E-12 <-- DLTA
 ------------------------------------------------------------------------------
 Cycle:     75
  WF centre and spread    1  (  0.000001,  3.691167, -0.000000 )     2.46748700
  WF centre and spread    2  ( -3.691169, -0.000000,  0.000000 )     2.46748689
  WF centre and spread    3  (  0.000001, -0.000000, -3.691167 )     2.46748699
  Sum of centres and spreads ( -3.691167,  3.691167, -3.691167 )     7.40246088
 
     75    -0.327E-12     0.0000065830        7.4024641506       0.14  <-- CONV
        O_D=      0.0000000 O_OD=      0.0106689 O_TOT=      7.4024642 <-- SPRD
 Delta: O_D= -0.1011286E-12 O_OD= -0.2256112E-12 O_TOT= -0.3268497E-12 <-- DLTA
 ------------------------------------------------------------------------------
 Cycle:     76
  WF centre and spread    1  (  0.000001,  3.691167, -0.000000 )     2.46748700
  WF centre and spread    2  ( -3.691169, -0.000000,  0.000000 )     2.46748689
  WF centre and spread    3  (  0.000001, -0.000000, -3.691167 )     2.46748699
  Sum of centres and spreads ( -3.691167,  3.691167, -3.691167 )     7.40246088
 
     76    -0.434E-12     0.0000065773        7.4024641506       0.14  <-- CONV
        O_D=      0.0000000 O_OD=      0.0106689 O_TOT=      7.4024642 <-- SPRD
 Delta: O_D= -0.1343235E-12 O_OD= -0.3002702E-12 O_TOT= -0.4343192E-12 <-- DLTA
 ------------------------------------------------------------------------------
 Cycle:     77
  WF centre and spread    1  (  0.000001,  3.691167, -0.000000 )     2.46748700
  WF centre and spread    2  ( -3.691169, -0.000000,  0.000000 )     2.46748689
  WF centre and spread    3  (  0.000001, -0.000000, -3.691167 )     2.46748699
  Sum of centres and spreads ( -3.691167,  3.691167, -3.691167 )     7.40246088
 
     77    -0.542E-12     0.0000065698        7.4024641506       0.14  <-- CONV
        O_D=      0.0000000 O_OD=      0.0106689 O_TOT=      7.4024642 <-- SPRD
 Delta: O_D= -0.1670708E-12 O_OD= -0.3744522E-12 O_TOT= -0.5417888E-12 <-- DLTA
 ------------------------------------------------------------------------------
 Cycle:     78
  WF centre and spread    1  (  0.000001,  3.691167, -0.000000 )     2.46748700
  WF centre and spread    2  ( -3.691169, -0.000000,  0.000000 )     2.46748689
  WF centre and spread    3  (  0.000001, -0.000000, -3.691167 )     2.46748699
  Sum of centres and spreads ( -3.691167,  3.691167, -3.691167 )     7.40246088
 
     78    -0.647E-12     0.0000065604        7.4024641506       0.15  <-- CONV
        O_D=      0.0000000 O_OD=      0.0106689 O_TOT=      7.4024642 <-- SPRD
 Delta: O_D= -0.1992631E-12 O_OD= -0.4480565E-12 O_TOT= -0.6474821E-12 <-- DLTA
 ------------------------------------------------------------------------------
 Cycle:     79
  WF centre and spread    1  (  0.000001,  3.691167, -0.000000 )     2.46748700
  WF centre and spread    2  ( -3.691169, -0.000000,  0.000000 )     2.46748689
  WF centre and spread    3  (  0.000001, -0.000000, -3.691167 )     2.46748699
  Sum of centres and spreads ( -3.691167,  3.691167, -3.691167 )     7.40246088
 
     79    -0.107E-12     0.0000065493        7.4024641506       0.15  <-- CONV
        O_D=      0.0000000 O_OD=      0.0106689 O_TOT=      7.4024642 <-- SPRD
 Delta: O_D= -0.3302500E-13 O_OD= -0.7484811E-13 O_TOT= -0.1074696E-12 <-- DLTA
 ------------------------------------------------------------------------------
 Cycle:     80
  WF centre and spread    1  (  0.000001,  3.691167, -0.000000 )     2.46748700
  WF centre and spread    2  ( -3.691169, -0.000000,  0.000000 )     2.46748689
  WF centre and spread    3  (  0.000001, -0.000000, -3.691167 )     2.46748699
  Sum of centres and spreads ( -3.691167,  3.691167, -3.691167 )     7.40246088
 
     80    -0.216E-12     0.0000065475        7.4024641506       0.15  <-- CONV
        O_D=      0.0000000 O_OD=      0.0106689 O_TOT=      7.4024642 <-- SPRD
 Delta: O_D= -0.6595695E-13 O_OD= -0.1496390E-12 O_TOT= -0.2158274E-12 <-- DLTA
 ------------------------------------------------------------------------------
 Cycle:     81
  WF centre and spread    1  (  0.000001,  3.691167, -0.000000 )     2.46748700
  WF centre and spread    2  ( -3.691169, -0.000000,  0.000000 )     2.46748689
  WF centre and spread    3  (  0.000001, -0.000000, -3.691167 )     2.46748699
  Sum of centres and spreads ( -3.691167,  3.691167, -3.691167 )     7.40246088
 
     81    -0.322E-12     0.0000065439        7.4024641506       0.15  <-- CONV
        O_D=      0.0000000 O_OD=      0.0106689 O_TOT=      7.4024642 <-- SPRD
 Delta: O_D= -0.9868544E-13 O_OD= -0.2241731E-12 O_TOT= -0.3224088E-12 <-- DLTA
 ------------------------------------------------------------------------------
 Cycle:     82
  WF centre and spread    1  (  0.000001,  3.691167, -0.000000 )     2.46748700
  WF centre and spread    2  ( -3.691169, -0.000000,  0.000000 )     2.46748689
  WF centre and spread    3  (  0.000001, -0.000000, -3.691167 )     2.46748699
  Sum of centres and spreads ( -3.691167,  3.691167, -3.691167 )     7.40246088
 
     82    -0.430E-12     0.0000065385        7.4024641506       0.15  <-- CONV
        O_D=      0.0000000 O_OD=      0.0106689 O_TOT=      7.4024642 <-- SPRD
 Delta: O_D= -0.1311023E-12 O_OD= -0.2984227E-12 O_TOT= -0.4298784E-12 <-- DLTA
 ------------------------------------------------------------------------------
 Cycle:     83
  WF centre and spread    1  (  0.000001,  3.691167, -0.000000 )     2.46748700
  WF centre and spread    2  ( -3.691169, -0.000000,  0.000000 )     2.46748689
  WF centre and spread    3  (  0.000001, -0.000000, -3.691167 )     2.46748699
  Sum of centres and spreads ( -3.691167,  3.691167, -3.691167 )     7.40246088
 
     83    -0.535E-12     0.0000065313        7.4024641506       0.15  <-- CONV
        O_D=      0.0000000 O_OD=      0.0106689 O_TOT=      7.4024642 <-- SPRD
 Delta: O_D= -0.1631029E-12 O_OD= -0.3721849E-12 O_TOT= -0.5346834E-12 <-- DLTA
 ------------------------------------------------------------------------------
 Cycle:     84
  WF centre and spread    1  (  0.000001,  3.691167, -0.000000 )     2.46748700
  WF centre and spread    2  ( -3.691169, -0.000000,  0.000000 )     2.46748689
  WF centre and spread    3  (  0.000001, -0.000000, -3.691167 )     2.46748699
  Sum of centres and spreads ( -3.691167,  3.691167, -3.691167 )     7.40246088
 
     84    -0.640E-12     0.0000065224        7.4024641506       0.15  <-- CONV
        O_D=      0.0000000 O_OD=      0.0106689 O_TOT=      7.4024642 <-- SPRD
 Delta: O_D= -0.1945873E-12 O_OD= -0.4453382E-12 O_TOT= -0.6403766E-12 <-- DLTA
 ------------------------------------------------------------------------------
 Cycle:     85
  WF centre and spread    1  (  0.000001,  3.691167, -0.000000 )     2.46748700
  WF centre and spread    2  ( -3.691169, -0.000000,  0.000000 )     2.46748689
  WF centre and spread    3  (  0.000001, -0.000000, -3.691167 )     2.46748699
  Sum of centres and spreads ( -3.691167,  3.691167, -3.691167 )     7.40246088
 
     85    -0.107E-12     0.0000065119        7.4024641506       0.15  <-- CONV
        O_D=      0.0000000 O_OD=      0.0106689 O_TOT=      7.4024642 <-- SPRD
 Delta: O_D= -0.3226038E-13 O_OD= -0.7441096E-13 O_TOT= -0.1074696E-12 <-- DLTA
 ------------------------------------------------------------------------------
 Cycle:     86
  WF centre and spread    1  (  0.000001,  3.691167, -0.000000 )     2.46748700
  WF centre and spread    2  ( -3.691169, -0.000000,  0.000000 )     2.46748689
  WF centre and spread    3  (  0.000001, -0.000000, -3.691167 )     2.46748699
  Sum of centres and spreads ( -3.691167,  3.691167, -3.691167 )     7.40246088
 
     86    -0.212E-12     0.0000065101        7.4024641506       0.16  <-- CONV
        O_D=      0.0000000 O_OD=      0.0106689 O_TOT=      7.4024642 <-- SPRD
 Delta: O_D= -0.6443421E-13 O_OD= -0.1486831E-12 O_TOT= -0.2122746E-12 <-- DLTA
 ------------------------------------------------------------------------------
 Cycle:     87
  WF centre and spread    1  (  0.000001,  3.691167, -0.000000 )     2.46748700
  WF centre and spread    2  ( -3.691169, -0.000000,  0.000000 )     2.46748689
  WF centre and spread    3  (  0.000001, -0.000000, -3.691167 )     2.46748699
  Sum of centres and spreads ( -3.691167,  3.691167, -3.691167 )     7.40246088
 
     87    -0.320E-12     0.0000065067        7.4024641506       0.16  <-- CONV
        O_D=      0.0000000 O_OD=      0.0106689 O_TOT=      7.4024642 <-- SPRD
 Delta: O_D= -0.9641869E-13 O_OD= -0.2228009E-12 O_TOT= -0.3197442E-12 <-- DLTA
 ------------------------------------------------------------------------------
 Cycle:     88
  WF centre and spread    1  (  0.000001,  3.691167, -0.000000 )     2.46748700
  WF centre and spread    2  ( -3.691169, -0.000000,  0.000000 )     2.46748689
  WF centre and spread    3  (  0.000001, -0.000000, -3.691167 )     2.46748699
  Sum of centres and spreads ( -3.691167,  3.691167, -3.691167 )     7.40246088
 
     88    -0.425E-12     0.0000065015        7.4024641506       0.16  <-- CONV
        O_D=      0.0000000 O_OD=      0.0106689 O_TOT=      7.4024642 <-- SPRD
 Delta: O_D= -0.1281130E-12 O_OD= -0.2965874E-12 O_TOT= -0.4245493E-12 <-- DLTA
 ------------------------------------------------------------------------------
 Cycle:     89
  WF centre and spread    1  (  0.000001,  3.691167, -0.000000 )     2.46748700
  WF centre and spread    2  ( -3.691169, -0.000000,  0.000000 )     2.46748689
  WF centre and spread    3  (  0.000001, -0.000000, -3.691167 )     2.46748699
  Sum of centres and spreads ( -3.691167,  3.691167, -3.691167 )     7.40246088
 
     89    -0.529E-12     0.0000064947        7.4024641506       0.16  <-- CONV
        O_D=      0.0000000 O_OD=      0.0106689 O_TOT=      7.4024642 <-- SPRD
 Delta: O_D= -0.1594196E-12 O_OD= -0.3699142E-12 O_TOT= -0.5293543E-12 <-- DLTA
 ------------------------------------------------------------------------------
 Cycle:     90
  WF centre and spread    1  (  0.000001,  3.691167, -0.000000 )     2.46748700
  WF centre and spread    2  ( -3.691169, -0.000000,  0.000000 )     2.46748689
  WF centre and spread    3  (  0.000001, -0.000000, -3.691167 )     2.46748699
  Sum of centres and spreads ( -3.691167,  3.691167, -3.691167 )     7.40246088
 
     90    -0.633E-12     0.0000064862        7.4024641506       0.16  <-- CONV
        O_D=      0.0000000 O_OD=      0.0106689 O_TOT=      7.4024642 <-- SPRD
 Delta: O_D= -0.1902449E-12 O_OD= -0.4426928E-12 O_TOT= -0.6332712E-12 <-- DLTA
 ------------------------------------------------------------------------------
 Cycle:     91
  WF centre and spread    1  (  0.000001,  3.691167, -0.000000 )     2.46748700
  WF centre and spread    2  ( -3.691169, -0.000000,  0.000000 )     2.46748689
  WF centre and spread    3  (  0.000001, -0.000000, -3.691167 )     2.46748699
  Sum of centres and spreads ( -3.691167,  3.691167, -3.691167 )     7.40246088
 
     91    -0.105E-12     0.0000064761        7.4024641506       0.16  <-- CONV
        O_D=      0.0000000 O_OD=      0.0106689 O_TOT=      7.4024642 <-- SPRD
 Delta: O_D= -0.3155011E-13 O_OD= -0.7394606E-13 O_TOT= -0.1048051E-12 <-- DLTA
 ------------------------------------------------------------------------------
 Cycle:     92
  WF centre and spread    1  (  0.000001,  3.691167, -0.000000 )     2.46748700
  WF centre and spread    2  ( -3.691169, -0.000000,  0.000000 )     2.46748689
  WF centre and spread    3  (  0.000001, -0.000000, -3.691167 )     2.46748699
  Sum of centres and spreads ( -3.691167,  3.691167, -3.691167 )     7.40246088
 
     92    -0.210E-12     0.0000064745        7.4024641506       0.16  <-- CONV
        O_D=      0.0000000 O_OD=      0.0106689 O_TOT=      7.4024642 <-- SPRD
 Delta: O_D= -0.6301960E-13 O_OD= -0.1477828E-12 O_TOT= -0.2104983E-12 <-- DLTA
 ------------------------------------------------------------------------------
 Cycle:     93
  WF centre and spread    1  (  0.000001,  3.691167, -0.000000 )     2.46748700
  WF centre and spread    2  ( -3.691169, -0.000000,  0.000000 )     2.46748689
  WF centre and spread    3  (  0.000001, -0.000000, -3.691167 )     2.46748699
  Sum of centres and spreads ( -3.691167,  3.691167, -3.691167 )     7.40246088
 
     93    -0.317E-12     0.0000064712        7.4024641506       0.16  <-- CONV
        O_D=      0.0000000 O_OD=      0.0106689 O_TOT=      7.4024642 <-- SPRD
 Delta: O_D= -0.9431254E-13 O_OD= -0.2214496E-12 O_TOT= -0.3170797E-12 <-- DLTA
 ------------------------------------------------------------------------------
 Cycle:     94
  WF centre and spread    1  (  0.000001,  3.691167, -0.000000 )     2.46748700
  WF centre and spread    2  ( -3.691169, -0.000000,  0.000000 )     2.46748689
  WF centre and spread    3  (  0.000001, -0.000000, -3.691167 )     2.46748699
  Sum of centres and spreads ( -3.691167,  3.691167, -3.691167 )     7.40246088
 
     94    -0.420E-12     0.0000064663        7.4024641506       0.16  <-- CONV
        O_D=      0.0000000 O_OD=      0.0106689 O_TOT=      7.4024642 <-- SPRD
 Delta: O_D= -0.1253348E-12 O_OD= -0.2947850E-12 O_TOT= -0.4201084E-12 <-- DLTA
 ------------------------------------------------------------------------------
 Cycle:     95
  WF centre and spread    1  (  0.000001,  3.691167, -0.000000 )     2.46748700
  WF centre and spread    2  ( -3.691169, -0.000000,  0.000000 )     2.46748689
  WF centre and spread    3  (  0.000001, -0.000000, -3.691167 )     2.46748699
  Sum of centres and spreads ( -3.691167,  3.691167, -3.691167 )     7.40246088
 
     95    -0.523E-12     0.0000064597        7.4024641506       0.17  <-- CONV
        O_D=      0.0000000 O_OD=      0.0106689 O_TOT=      7.4024642 <-- SPRD
 Delta: O_D= -0.1559951E-12 O_OD= -0.3677007E-12 O_TOT= -0.5231371E-12 <-- DLTA
 ------------------------------------------------------------------------------
 Cycle:     96
  WF centre and spread    1  (  0.000001,  3.691167, -0.000000 )     2.46748700
  WF centre and spread    2  ( -3.691169, -0.000000,  0.000000 )     2.46748689
  WF centre and spread    3  (  0.000001, -0.000000, -3.691167 )     2.46748699
  Sum of centres and spreads ( -3.691167,  3.691167, -3.691167 )     7.40246088
 
     96    -0.626E-12     0.0000064516        7.4024641506       0.17  <-- CONV
        O_D=      0.0000000 O_OD=      0.0106689 O_TOT=      7.4024642 <-- SPRD
 Delta: O_D= -0.1862061E-12 O_OD= -0.4400872E-12 O_TOT= -0.6261658E-12 <-- DLTA
 ------------------------------------------------------------------------------
 Cycle:     97
  WF centre and spread    1  (  0.000001,  3.691167, -0.000000 )     2.46748700
  WF centre and spread    2  ( -3.691169, -0.000000,  0.000000 )     2.46748689
  WF centre and spread    3  (  0.000001, -0.000000, -3.691167 )     2.46748699
  Sum of centres and spreads ( -3.691167,  3.691167, -3.691167 )     7.40246088
 
[...]
  Sum of centres and spreads ( -3.691167,  3.691167, -3.691167 )     7.40246088
 
    473    -0.354E-12     0.0000053112        7.4024641505       0.60  <-- CONV
        O_D=      0.0000000 O_OD=      0.0106689 O_TOT=      7.4024642 <-- SPRD
 Delta: O_D= -0.8615278E-13 O_OD= -0.2683079E-12 O_TOT= -0.3543832E-12 <-- DLTA
 ------------------------------------------------------------------------------
 Cycle:    474
  WF centre and spread    1  (  0.000001,  3.691167, -0.000000 )     2.46748700
  WF centre and spread    2  ( -3.691169, -0.000000,  0.000000 )     2.46748689
  WF centre and spread    3  (  0.000001, -0.000000, -3.691167 )     2.46748699
  Sum of centres and spreads ( -3.691167,  3.691167, -3.691167 )     7.40246088
 
    474    -0.425E-12     0.0000053080        7.4024641505       0.60  <-- CONV
        O_D=      0.0000000 O_OD=      0.0106689 O_TOT=      7.4024642 <-- SPRD
 Delta: O_D= -0.1031939E-12 O_OD= -0.3214495E-12 O_TOT= -0.4245493E-12 <-- DLTA
 ------------------------------------------------------------------------------
 Cycle:    475
  WF centre and spread    1  (  0.000001,  3.691167, -0.000000 )     2.46748700
  WF centre and spread    2  ( -3.691169, -0.000000,  0.000000 )     2.46748689
  WF centre and spread    3  (  0.000001, -0.000000, -3.691167 )     2.46748699
  Sum of centres and spreads ( -3.691167,  3.691167, -3.691167 )     7.40246088
 
    475    -0.711E-13     0.0000053043        7.4024641505       0.60  <-- CONV
        O_D=      0.0000000 O_OD=      0.0106689 O_TOT=      7.4024642 <-- SPRD
 Delta: O_D= -0.1718813E-13 O_OD= -0.5359081E-13 O_TOT= -0.7105427E-13 <-- DLTA
 ------------------------------------------------------------------------------
 Cycle:    476
  WF centre and spread    1  (  0.000001,  3.691167, -0.000000 )     2.46748700
  WF centre and spread    2  ( -3.691169, -0.000000,  0.000000 )     2.46748689
  WF centre and spread    3  (  0.000001, -0.000000, -3.691167 )     2.46748699
  Sum of centres and spreads ( -3.691167,  3.691167, -3.691167 )     7.40246088
 
    476    -0.141E-12     0.0000053037        7.4024641505       0.60  <-- CONV
        O_D=      0.0000000 O_OD=      0.0106689 O_TOT=      7.4024642 <-- SPRD
 Delta: O_D= -0.3436202E-13 O_OD= -0.1071331E-12 O_TOT= -0.1412204E-12 <-- DLTA
 ------------------------------------------------------------------------------
 Cycle:    477
  WF centre and spread    1  (  0.000001,  3.691167, -0.000000 )     2.46748700
  WF centre and spread    2  ( -3.691169, -0.000000,  0.000000 )     2.46748689
  WF centre and spread    3  (  0.000001, -0.000000, -3.691167 )     2.46748699
  Sum of centres and spreads ( -3.691167,  3.691167, -3.691167 )     7.40246088
 
    477    -0.212E-12     0.0000053025        7.4024641505       0.60  <-- CONV
        O_D=      0.0000000 O_OD=      0.0106689 O_TOT=      7.4024642 <-- SPRD
 Delta: O_D= -0.5150345E-13 O_OD= -0.1605972E-12 O_TOT= -0.2122746E-12 <-- DLTA
 ------------------------------------------------------------------------------
 Cycle:    478
  WF centre and spread    1  (  0.000001,  3.691167, -0.000000 )     2.46748700
  WF centre and spread    2  ( -3.691169, -0.000000,  0.000000 )     2.46748689
  WF centre and spread    3  (  0.000001, -0.000000, -3.691167 )     2.46748699
  Sum of centres and spreads ( -3.691167,  3.691167, -3.691167 )     7.40246088
 
    478    -0.283E-12     0.0000053006        7.4024641505       0.60  <-- CONV
        O_D=      0.0000000 O_OD=      0.0106689 O_TOT=      7.4024642 <-- SPRD
 Delta: O_D= -0.6859425E-13 O_OD= -0.2139296E-12 O_TOT= -0.2833289E-12 <-- DLTA
 ------------------------------------------------------------------------------
 Cycle:    479
  WF centre and spread    1  (  0.000001,  3.691167, -0.000000 )     2.46748700
  WF centre and spread    2  ( -3.691169, -0.000000,  0.000000 )     2.46748689
  WF centre and spread    3  (  0.000001, -0.000000, -3.691167 )     2.46748699
  Sum of centres and spreads ( -3.691167,  3.691167, -3.691167 )     7.40246088
 
    479    -0.352E-12     0.0000052981        7.4024641505       0.60  <-- CONV
        O_D=      0.0000000 O_OD=      0.0106689 O_TOT=      7.4024642 <-- SPRD
 Delta: O_D= -0.8561639E-13 O_OD= -0.2670936E-12 O_TOT= -0.3517187E-12 <-- DLTA
 ------------------------------------------------------------------------------
 Cycle:    480
  WF centre and spread    1  (  0.000001,  3.691167, -0.000000 )     2.46748700
  WF centre and spread    2  ( -3.691169, -0.000000,  0.000000 )     2.46748689
  WF centre and spread    3  (  0.000001, -0.000000, -3.691167 )     2.46748699
  Sum of centres and spreads ( -3.691167,  3.691167, -3.691167 )     7.40246088
 
    480    -0.423E-12     0.0000052950        7.4024641505       0.60  <-- CONV
        O_D=      0.0000000 O_OD=      0.0106689 O_TOT=      7.4024642 <-- SPRD
 Delta: O_D= -0.1025520E-12 O_OD= -0.3199975E-12 O_TOT= -0.4227729E-12 <-- DLTA
 ------------------------------------------------------------------------------
 Cycle:    481
  WF centre and spread    1  (  0.000001,  3.691167, -0.000000 )     2.46748700
  WF centre and spread    2  ( -3.691169, -0.000000,  0.000000 )     2.46748689
  WF centre and spread    3  (  0.000001, -0.000000, -3.691167 )     2.46748699
  Sum of centres and spreads ( -3.691167,  3.691167, -3.691167 )     7.40246088
 
    481    -0.711E-13     0.0000052913        7.4024641505       0.61  <-- CONV
        O_D=      0.0000000 O_OD=      0.0106689 O_TOT=      7.4024642 <-- SPRD
 Delta: O_D= -0.1708128E-13 O_OD= -0.5335662E-13 O_TOT= -0.7105427E-13 <-- DLTA
 ------------------------------------------------------------------------------
 Cycle:    482
  WF centre and spread    1  (  0.000001,  3.691167, -0.000000 )     2.46748700
  WF centre and spread    2  ( -3.691169, -0.000000,  0.000000 )     2.46748689
  WF centre and spread    3  (  0.000001, -0.000000, -3.691167 )     2.46748699
  Sum of centres and spreads ( -3.691167,  3.691167, -3.691167 )     7.40246088
 
    482    -0.140E-12     0.0000052907        7.4024641505       0.61  <-- CONV
        O_D=      0.0000000 O_OD=      0.0106689 O_TOT=      7.4024642 <-- SPRD
 Delta: O_D= -0.3414846E-13 O_OD= -0.1066595E-12 O_TOT= -0.1403322E-12 <-- DLTA
 ------------------------------------------------------------------------------
 Cycle:    483
  WF centre and spread    1  (  0.000001,  3.691167, -0.000000 )     2.46748700
  WF centre and spread    2  ( -3.691169, -0.000000,  0.000000 )     2.46748689
  WF centre and spread    3  (  0.000001, -0.000000, -3.691167 )     2.46748699
  Sum of centres and spreads ( -3.691167,  3.691167, -3.691167 )     7.40246088
 
    483    -0.211E-12     0.0000052895        7.4024641505       0.61  <-- CONV
        O_D=      0.0000000 O_OD=      0.0106689 O_TOT=      7.4024642 <-- SPRD
 Delta: O_D= -0.5118347E-13 O_OD= -0.1598600E-12 O_TOT= -0.2113865E-12 <-- DLTA
 ------------------------------------------------------------------------------
 Cycle:    484
  WF centre and spread    1  (  0.000001,  3.691167, -0.000000 )     2.46748700
  WF centre and spread    2  ( -3.691169, -0.000000,  0.000000 )     2.46748689
  WF centre and spread    3  (  0.000001, -0.000000, -3.691167 )     2.46748699
  Sum of centres and spreads ( -3.691167,  3.691167, -3.691167 )     7.40246088
 
    484    -0.282E-12     0.0000052876        7.4024641505       0.61  <-- CONV
        O_D=      0.0000000 O_OD=      0.0106689 O_TOT=      7.4024642 <-- SPRD
 Delta: O_D= -0.6816833E-13 O_OD= -0.2129946E-12 O_TOT= -0.2815526E-12 <-- DLTA
 ------------------------------------------------------------------------------
 Cycle:    485
  WF centre and spread    1  (  0.000001,  3.691167, -0.000000 )     2.46748700
  WF centre and spread    2  ( -3.691169, -0.000000,  0.000000 )     2.46748689
  WF centre and spread    3  (  0.000001, -0.000000, -3.691167 )     2.46748699
  Sum of centres and spreads ( -3.691167,  3.691167, -3.691167 )     7.40246088
 
    485    -0.350E-12     0.0000052852        7.4024641505       0.61  <-- CONV
        O_D=      0.0000000 O_OD=      0.0106689 O_TOT=      7.4024642 <-- SPRD
 Delta: O_D= -0.8508518E-13 O_OD= -0.2659054E-12 O_TOT= -0.3499423E-12 <-- DLTA
 ------------------------------------------------------------------------------
 Cycle:    486
  WF centre and spread    1  (  0.000001,  3.691167, -0.000000 )     2.46748700
  WF centre and spread    2  ( -3.691169, -0.000000,  0.000000 )     2.46748689
  WF centre and spread    3  (  0.000001, -0.000000, -3.691167 )     2.46748699
  Sum of centres and spreads ( -3.691167,  3.691167, -3.691167 )     7.40246088
 
    486    -0.421E-12     0.0000052821        7.4024641505       0.61  <-- CONV
        O_D=      0.0000000 O_OD=      0.0106689 O_TOT=      7.4024642 <-- SPRD
 Delta: O_D= -0.1019163E-12 O_OD= -0.3186132E-12 O_TOT= -0.4209966E-12 <-- DLTA
 ------------------------------------------------------------------------------
 Cycle:    487
  WF centre and spread    1  (  0.000001,  3.691167, -0.000000 )     2.46748700
  WF centre and spread    2  ( -3.691169, -0.000000,  0.000000 )     2.46748689
  WF centre and spread    3  (  0.000001, -0.000000, -3.691167 )     2.46748699
  Sum of centres and spreads ( -3.691167,  3.691167, -3.691167 )     7.40246088
 
    487    -0.702E-13     0.0000052784        7.4024641505       0.61  <-- CONV
        O_D=      0.0000000 O_OD=      0.0106689 O_TOT=      7.4024642 <-- SPRD
 Delta: O_D= -0.1697546E-13 O_OD= -0.5311897E-13 O_TOT= -0.7016610E-13 <-- DLTA
 ------------------------------------------------------------------------------
 Cycle:    488
  WF centre and spread    1  (  0.000001,  3.691167, -0.000000 )     2.46748700
  WF centre and spread    2  ( -3.691169, -0.000000,  0.000000 )     2.46748689
  WF centre and spread    3  (  0.000001, -0.000000, -3.691167 )     2.46748699
  Sum of centres and spreads ( -3.691167,  3.691167, -3.691167 )     7.40246088
 
    488    -0.139E-12     0.0000052778        7.4024641505       0.61  <-- CONV
        O_D=      0.0000000 O_OD=      0.0106689 O_TOT=      7.4024642 <-- SPRD
 Delta: O_D= -0.3393695E-13 O_OD= -0.1061651E-12 O_TOT= -0.1394440E-12 <-- DLTA
 ------------------------------------------------------------------------------
 Cycle:    489
  WF centre and spread    1  (  0.000001,  3.691167, -0.000000 )     2.46748700
  WF centre and spread    2  ( -3.691169, -0.000000,  0.000000 )     2.46748689
  WF centre and spread    3  (  0.000001, -0.000000, -3.691167 )     2.46748699
  Sum of centres and spreads ( -3.691167,  3.691167, -3.691167 )     7.40246088
 
    489    -0.210E-12     0.0000052765        7.4024641505       0.62  <-- CONV
        O_D=      0.0000000 O_OD=      0.0106689 O_TOT=      7.4024642 <-- SPRD
 Delta: O_D= -0.5086657E-13 O_OD= -0.1591782E-12 O_TOT= -0.2104983E-12 <-- DLTA
 ------------------------------------------------------------------------------
 Cycle:    490
  WF centre and spread    1  (  0.000001,  3.691167, -0.000000 )     2.46748700
  WF centre and spread    2  ( -3.691169, -0.000000,  0.000000 )     2.46748689
  WF centre and spread    3  (  0.000001, -0.000000, -3.691167 )     2.46748699
  Sum of centres and spreads ( -3.691167,  3.691167, -3.691167 )     7.40246088
 
    490    -0.280E-12     0.0000052747        7.4024641505       0.62  <-- CONV
        O_D=      0.0000000 O_OD=      0.0106689 O_TOT=      7.4024642 <-- SPRD
 Delta: O_D= -0.6774651E-13 O_OD= -0.2120248E-12 O_TOT= -0.2797762E-12 <-- DLTA
 ------------------------------------------------------------------------------
 Cycle:    491
  WF centre and spread    1  (  0.000001,  3.691167, -0.000000 )     2.46748700
  WF centre and spread    2  ( -3.691169, -0.000000,  0.000000 )     2.46748689
  WF centre and spread    3  (  0.000001, -0.000000, -3.691167 )     2.46748699
  Sum of centres and spreads ( -3.691167,  3.691167, -3.691167 )     7.40246088
 
    491    -0.349E-12     0.0000052722        7.4024641505       0.62  <-- CONV
        O_D=      0.0000000 O_OD=      0.0106689 O_TOT=      7.4024642 <-- SPRD
 Delta: O_D= -0.8455905E-13 O_OD= -0.2647136E-12 O_TOT= -0.3490541E-12 <-- DLTA
 ------------------------------------------------------------------------------
 Cycle:    492
  WF centre and spread    1  (  0.000001,  3.691167, -0.000000 )     2.46748700
  WF centre and spread    2  ( -3.691169, -0.000000,  0.000000 )     2.46748689
  WF centre and spread    3  (  0.000001, -0.000000, -3.691167 )     2.46748699
  Sum of centres and spreads ( -3.691167,  3.691167, -3.691167 )     7.40246088
 
    492    -0.418E-12     0.0000052692        7.4024641505       0.62  <-- CONV
        O_D=      0.0000000 O_OD=      0.0106689 O_TOT=      7.4024642 <-- SPRD
 Delta: O_D= -0.1012867E-12 O_OD= -0.3171768E-12 O_TOT= -0.4183320E-12 <-- DLTA
 ------------------------------------------------------------------------------
 Cycle:    493
  WF centre and spread    1  (  0.000001,  3.691167, -0.000000 )     2.46748700
  WF centre and spread    2  ( -3.691169, -0.000000,  0.000000 )     2.46748689
  WF centre and spread    3  (  0.000001, -0.000000, -3.691167 )     2.46748699
  Sum of centres and spreads ( -3.691167,  3.691167, -3.691167 )     7.40246088
 
    493    -0.702E-13     0.0000052655        7.4024641505       0.62  <-- CONV
        O_D=      0.0000000 O_OD=      0.0106689 O_TOT=      7.4024642 <-- SPRD
 Delta: O_D= -0.1687065E-13 O_OD= -0.5287611E-13 O_TOT= -0.7016610E-13 <-- DLTA
 ------------------------------------------------------------------------------
 Cycle:    494
  WF centre and spread    1  (  0.000001,  3.691167, -0.000000 )     2.46748700
  WF centre and spread    2  ( -3.691169, -0.000000,  0.000000 )     2.46748689
  WF centre and spread    3  (  0.000001, -0.000000, -3.691167 )     2.46748699
  Sum of centres and spreads ( -3.691167,  3.691167, -3.691167 )     7.40246088
 
    494    -0.139E-12     0.0000052649        7.4024641505       0.62  <-- CONV
        O_D=      0.0000000 O_OD=      0.0106689 O_TOT=      7.4024642 <-- SPRD
 Delta: O_D= -0.3372745E-13 O_OD= -0.1057140E-12 O_TOT= -0.1394440E-12 <-- DLTA
 ------------------------------------------------------------------------------
 Cycle:    495
  WF centre and spread    1  (  0.000001,  3.691167, -0.000000 )     2.46748700
  WF centre and spread    2  ( -3.691169, -0.000000,  0.000000 )     2.46748689
  WF centre and spread    3  (  0.000001, -0.000000, -3.691167 )     2.46748699
  Sum of centres and spreads ( -3.691167,  3.691167, -3.691167 )     7.40246088
 
    495    -0.209E-12     0.0000052637        7.4024641505       0.62  <-- CONV
        O_D=      0.0000000 O_OD=      0.0106689 O_TOT=      7.4024642 <-- SPRD
 Delta: O_D= -0.5055268E-13 O_OD= -0.1584531E-12 O_TOT= -0.2087219E-12 <-- DLTA
 ------------------------------------------------------------------------------
 Cycle:    496
  WF centre and spread    1  (  0.000001,  3.691167, -0.000000 )     2.46748700
  WF centre and spread    2  ( -3.691169, -0.000000,  0.000000 )     2.46748689
  WF centre and spread    3  (  0.000001, -0.000000, -3.691167 )     2.46748699
  Sum of centres and spreads ( -3.691167,  3.691167, -3.691167 )     7.40246088
 
    496    -0.279E-12     0.0000052619        7.4024641505       0.62  <-- CONV
        O_D=      0.0000000 O_OD=      0.0106689 O_TOT=      7.4024642 <-- SPRD
 Delta: O_D= -0.6732869E-13 O_OD= -0.2110777E-12 O_TOT= -0.2788880E-12 <-- DLTA
 ------------------------------------------------------------------------------
 Cycle:    497
  WF centre and spread    1  (  0.000001,  3.691167, -0.000000 )     2.46748700
  WF centre and spread    2  ( -3.691169, -0.000000,  0.000000 )     2.46748689
  WF centre and spread    3  (  0.000001, -0.000000, -3.691167 )     2.46748699
  Sum of centres and spreads ( -3.691167,  3.691167, -3.691167 )     7.40246088
 
    497    -0.347E-12     0.0000052594        7.4024641505       0.62  <-- CONV
        O_D=      0.0000000 O_OD=      0.0106689 O_TOT=      7.4024642 <-- SPRD
 Delta: O_D= -0.8403792E-13 O_OD= -0.2635427E-12 O_TOT= -0.3472778E-12 <-- DLTA
 ------------------------------------------------------------------------------
 Cycle:    498
  WF centre and spread    1  (  0.000001,  3.691167, -0.000000 )     2.46748700
  WF centre and spread    2  ( -3.691169, -0.000000,  0.000000 )     2.46748689
  WF centre and spread    3  (  0.000001, -0.000000, -3.691167 )     2.46748699
  Sum of centres and spreads ( -3.691167,  3.691167, -3.691167 )     7.40246088
 
    498    -0.417E-12     0.0000052564        7.4024641505       0.63  <-- CONV
        O_D=      0.0000000 O_OD=      0.0106689 O_TOT=      7.4024642 <-- SPRD
 Delta: O_D= -0.1006630E-12 O_OD= -0.3157717E-12 O_TOT= -0.4165557E-12 <-- DLTA
 ------------------------------------------------------------------------------
 Cycle:    499
  WF centre and spread    1  (  0.000001,  3.691167, -0.000000 )     2.46748700
  WF centre and spread    2  ( -3.691169, -0.000000,  0.000000 )     2.46748689
  WF centre and spread    3  (  0.000001, -0.000000, -3.691167 )     2.46748699
  Sum of centres and spreads ( -3.691167,  3.691167, -3.691167 )     7.40246088
 
    499    -0.693E-13     0.0000052527        7.4024641505       0.63  <-- CONV
        O_D=      0.0000000 O_OD=      0.0106689 O_TOT=      7.4024642 <-- SPRD
 Delta: O_D= -0.1676682E-13 O_OD= -0.5263671E-13 O_TOT= -0.6927792E-13 <-- DLTA
 ------------------------------------------------------------------------------
 Cycle:    500
  WF centre and spread    1  (  0.000001,  3.691167, -0.000000 )     2.46748700
  WF centre and spread    2  ( -3.691169, -0.000000,  0.000000 )     2.46748689
  WF centre and spread    3  (  0.000001, -0.000000, -3.691167 )     2.46748699
  Sum of centres and spreads ( -3.691167,  3.691167, -3.691167 )     7.40246088
 
    500    -0.139E-12     0.0000052521        7.4024641505       0.63  <-- CONV
        O_D=      0.0000000 O_OD=      0.0106689 O_TOT=      7.4024642 <-- SPRD
 Delta: O_D= -0.3351993E-13 O_OD= -0.1052335E-12 O_TOT= -0.1385558E-12 <-- DLTA
 ------------------------------------------------------------------------------

 Writing checkpoint file mp-22903.chk... done

 Final State
  WF centre and spread    1  (  0.000001,  3.691167, -0.000000 )     2.46748700
  WF centre and spread    2  ( -3.691169, -0.000000,  0.000000 )     2.46748689
  WF centre and spread    3  (  0.000001, -0.000000, -3.691167 )     2.46748699
  Sum of centres and spreads ( -3.691167,  3.691167, -3.691167 )     7.40246088
 
         Spreads (Ang^2)       Omega I      =     7.391795291
        ================       Omega D      =     0.000000000
                               Omega OD     =     0.010668860
    Final Spread (Ang^2)       Omega Total  =     7.402464150
 ------------------------------------------------------------------------------
 Time for wannierise            0.622 (sec)

 Writing checkpoint file mp-22903.chk... done

 Time for plotting              0.000 (sec)
 Total Execution Time           1.605 (sec)

 *===========================================================================*
 |                             TIMING INFORMATION                            |
 *===========================================================================*
 |    Tag                                                Ncalls      Time (s)|
 |---------------------------------------------------------------------------|
 |kmesh: get                                        :         1         0.718|
 |overlap: allocate                                 :         1         0.001|
 |overlap: read                                     :         1         0.084|
 |wann: main                                        :         1         0.622|
 |plot: main                                        :         1         0.000|
 *---------------------------------------------------------------------------*
 
 All done: wannier90 exiting
