 
             +---------------------------------------------------+
             |                                                   |
             |                   WANNIER90                       |
             |                                                   |
             +---------------------------------------------------+
             |                                                   |
             |        Welcome to the Maximally-Localized         |
             |        Generalized Wannier Functions code         |
             |            http://www.wannier.org                 |
             |                                                   |
             |                                                   |
             |  Wannier90 Developer Group:                       |
             |    Giovanni Pizzi    (EPFL)                       |
             |    Valerio Vitale    (Cambridge)                  |
             |    David Vanderbilt  (Rutgers University)         |
             |    Nicola Marzari    (EPFL)                       |
             |    Ivo Souza         (Universidad del Pais Vasco) |
             |    Arash A. Mostofi  (Imperial College London)    |
             |    Jonathan R. Yates (University of Oxford)       |
             |                                                   |
             |  For the full list of Wannier90 3.x authors,      |
             |  please check the code documentation and the      |
             |  README on the GitHub page of the code            |
             |                                                   |
             |                                                   |
             |  Please cite                                      |
             |                                                   |
             |  [ref] "Wannier90 as a community code:            |
             |        new features and applications",            |
             |        G. Pizzi et al., J. Phys. Cond. Matt. 32,  |
             |        165902 (2020).                             |
             |        http://doi.org/10.1088/1361-648X/ab51ff    |
             |                                                   |
             |  in any publications arising from the use of      |
             |  this code. For the method please cite            |
             |                                                   |
             |  [ref] "Maximally Localized Generalised Wannier   |
             |         Functions for Composite Energy Bands"     |
             |         N. Marzari and D. Vanderbilt              |
             |         Phys. Rev. B 56 12847 (1997)              |
             |                                                   |
             |  [ref] "Maximally Localized Wannier Functions     |
             |         for Entangled Energy Bands"               |
             |         I. Souza, N. Marzari and D. Vanderbilt    |
             |         Phys. Rev. B 65 035109 (2001)             |
             |                                                   |
             |                                                   |
             | Copyright (c) 1996-2020                           |
             |        The Wannier90 Developer Group and          |
             |        individual contributors                    |
             |                                                   |
             |      Release: 3.1.0        5th March    2020      |
             |                                                   |
             | This program is free software; you can            |
             | redistribute it and/or modify it under the terms  |
             | of the GNU General Public License as published by |
             | the Free Software Foundation; either version 2 of |
             | the License, or (at your option) any later version|
             |                                                   |
             | This program is distributed in the hope that it   |
             | will be useful, but WITHOUT ANY WARRANTY; without |
             | even the implied warranty of MERCHANTABILITY or   |
             | FITNESS FOR A PARTICULAR PURPOSE. See the GNU     |
             | General Public License for more details.          |
             |                                                   |
             | You should have received a copy of the GNU General|
             | Public License along with this program; if not,   |
             | write to the Free Software Foundation, Inc.,      |
             | 675 Mass Ave, Cambridge, MA 02139, USA.           |
             |                                                   |
             +---------------------------------------------------+
             |    Execution started on  3Jan2024 at 14:39:08     |
             +---------------------------------------------------+
 
 ******************************************************************************
 * -> Using CODATA 2006 constant values                                       *
 *    (http://physics.nist.gov/cuu/Constants/index.html)                      *
 * -> Using Bohr value from CODATA                                            *
 ******************************************************************************
 

 Running in parallel on   8 CPUs

 
                                    ------
                                    SYSTEM
                                    ------
 
                              Lattice Vectors (Ang)
                    a_1    -3.691167   0.000000   3.691167
                    a_2     0.000000   3.691167   3.691167
                    a_3    -3.691167   3.691167   0.000000
 
                   Unit Cell Volume:     100.58219  (Ang^3)
 
                        Reciprocal-Space Vectors (Ang^-1)
                    b_1    -0.851111  -0.851111   0.851111
                    b_2     0.851111   0.851111   0.851111
                    b_3    -0.851111   0.851111  -0.851111
  
 *----------------------------------------------------------------------------*
 |   Site       Fractional Coordinate          Cartesian Coordinate (Ang)     |
 +----------------------------------------------------------------------------+
 | Rb   1   0.00000   0.00000   0.00000   |    0.00000   0.00000   0.00000    |
 | I    1   0.50000   0.50000   0.50000   |   -3.69117   3.69117   3.69117    |
 *----------------------------------------------------------------------------*
                                ------------
                                K-POINT GRID
                                ------------
  
             Grid size = 12 x 12 x 12      Total points = 1728
  
  
 *---------------------------------- MAIN ------------------------------------*
 |  Number of Wannier Functions               :                 3             |
 |  Number of Objective Wannier Functions     :                 3             |
 |  Number of input Bloch states              :                 3             |
 |  Output verbosity (1=low, 5=high)          :                 1             |
 |  Timing Level (1=low, 5=high)              :                 1             |
 |  Optimisation (0=memory, 3=speed)          :                 3             |
 |  Length Unit                               :               Ang             |
 |  Post-processing setup (write *.nnkp)      :                 F             |
 |  Using Gamma-only branch of algorithms     :                 F             |
 *----------------------------------------------------------------------------*
 *------------------------------- WANNIERISE ---------------------------------*
 |  Total number of iterations                :               500             |
 |  Number of CG steps before reset           :                 5             |
 |  Trial step length for line search         :             2.000             |
 |  Convergence tolerence                     :         0.100E-09             |
 |  Convergence window                        :                -1             |
 |  Iterations between writing output         :                 1             |
 |  Iterations between backing up to disk     :               100             |
 |  Write r^2_nm to file                      :                 F             |
 |  Write xyz WF centres to file              :                 F             |
 |  Write on-site energies <0n|H|0n> to file  :                 F             |
 |  Use guiding centre to control phases      :                 F             |
 |  Use phases for initial projections        :                 F             |
 *----------------------------------------------------------------------------*
 Time to read parameters        0.103 (sec)

 *---------------------------------- K-MESH ----------------------------------*
 +----------------------------------------------------------------------------+
 |                    Distance to Nearest-Neighbour Shells                    |
 |                    ------------------------------------                    |
 |          Shell             Distance (Ang^-1)          Multiplicity         |
 |          -----             -----------------          ------------         |
 |             1                   0.122847                      8            |
 |             2                   0.141852                      6            |
 |             3                   0.200609                     12            |
 |             4                   0.235235                     24            |
 |             5                   0.245695                      8            |
 |             6                   0.283704                      6            |
 |             7                   0.309159                     24            |
 |             8                   0.317190                     24            |
 |             9                   0.347465                     24            |
 |            10                   0.368542                     32            |
 |            11                   0.401218                     12            |
 |            12                   0.419603                     48            |
 |            13                   0.425555                     30            |
 |            14                   0.448575                     24            |
 |            15                   0.465092                     24            |
 |            16                   0.470469                     24            |
 |            17                   0.491389                      8            |
 |            18                   0.506512                     48            |
 |            19                   0.511454                     24            |
 |            20                   0.530761                     48            |
 |            21                   0.544792                     72            |
 |            22                   0.567407                      6            |
 |            23                   0.580554                     24            |
 |            24                   0.584870                     48            |
 |            25                   0.601826                     36            |
 |            26                   0.614236                     56            |
 |            27                   0.618318                     24            |
 |            28                   0.634381                     24            |
 |            29                   0.646166                     72            |
 |            30                   0.650047                     48            |
 |            31                   0.665344                     24            |
 |            32                   0.676590                     48            |
 |            33                   0.694929                     24            |
 |            34                   0.705704                     72            |
 |            35                   0.709259                     30            |
 |            36                   0.723305                     72            |
 +----------------------------------------------------------------------------+
 | The b-vectors are chosen automatically                                     |
 | The following shells are used:   1                                         |
 +----------------------------------------------------------------------------+
 |                        Shell   # Nearest-Neighbours                        |
 |                        -----   --------------------                        |
 |                          1               8                                 |
 +----------------------------------------------------------------------------+
 | Completeness relation is fully satisfied [Eq. (B1), PRB 56, 12847 (1997)]  |
 +----------------------------------------------------------------------------+
 |                  b_k Vectors (Ang^-1) and Weights (Ang^2)                  |
 |                  ----------------------------------------                  |
 |            No.         b_k(x)      b_k(y)      b_k(z)        w_b           |
 |            ---        --------------------------------     --------        |
 |             1        -0.070926    0.070926   -0.070926    24.848500        |
 |             2         0.070926    0.070926    0.070926    24.848500        |
 |             3        -0.070926   -0.070926    0.070926    24.848500        |
 |             4        -0.070926    0.070926    0.070926    24.848500        |
 |             5         0.070926   -0.070926    0.070926    24.848500        |
 |             6        -0.070926   -0.070926   -0.070926    24.848500        |
 |             7         0.070926    0.070926   -0.070926    24.848500        |
 |             8         0.070926   -0.070926   -0.070926    24.848500        |
 +----------------------------------------------------------------------------+
 |                           b_k Directions (Ang^-1)                          |
 |                           -----------------------                          |
 |            No.           x           y           z                         |
 |            ---        --------------------------------                     |
 |             1        -0.070926    0.070926   -0.070926                     |
 |             2         0.070926    0.070926    0.070926                     |
 |             3        -0.070926   -0.070926    0.070926                     |
 |             4        -0.070926    0.070926    0.070926                     |
 +----------------------------------------------------------------------------+
  
 Time to get kmesh              1.041 (sec)
 *============================================================================*
 |                              MEMORY ESTIMATE                               |
 |         Maximum RAM allocated during each phase of the calculation         |
 *============================================================================*
 |                            Wannierise:            7.00 Mb                  |
 |                          plot_wannier:            7.00 Mb                  |
 *----------------------------------------------------------------------------*
  
 Starting a new Wannier90 calculation ...


 Reading overlaps from mp-22903.mmn    :  Created on  3Jan2024 at 14:38:55

 Reading projections from mp-22903.amn :  Created on  3Jan2024 at 14:38:53  with SCDM

 Time to read overlaps          0.139 (sec)

 Writing checkpoint file mp-22903.chk... done

 
 *------------------------------- WANNIERISE ---------------------------------*
 +--------------------------------------------------------------------+<-- CONV
 | Iter  Delta Spread     RMS Gradient      Spread (Ang^2)      Time  |<-- CONV
 +--------------------------------------------------------------------+<-- CONV
 
 ------------------------------------------------------------------------------
 Initial State
  WF centre and spread    1  (  0.000252,  3.691786,  0.000250 )     2.48690036
  WF centre and spread    2  ( -3.691787, -0.000250,  0.000250 )     2.48689995
  WF centre and spread    3  (  0.000252, -0.000250, -3.691786 )     2.48689953
  Sum of centres and spreads ( -3.691284,  3.691285, -3.691285 )     7.46069984
 
      0     0.746E+01     0.0000000000        7.4607031113       0.00  <-- CONV
        O_D=      0.0255968 O_OD=      0.0433110 O_TOT=      7.4607031 <-- SPRD
 ------------------------------------------------------------------------------
 Cycle:      1
  WF centre and spread    1  (  0.000078,  3.691354,  0.000077 )     2.47033877
  WF centre and spread    2  ( -3.691355, -0.000077,  0.000077 )     2.47033921
  WF centre and spread    3  (  0.000078, -0.000077, -3.691354 )     2.47033923
  Sum of centres and spreads ( -3.691199,  3.691200, -3.691200 )     7.41101721
 
      1    -0.497E-01     0.0668057332        7.4110204819       0.01  <-- CONV
        O_D=      0.0034957 O_OD=      0.0157295 O_TOT=      7.4110205 <-- SPRD
 Delta: O_D= -0.2210109E-01 O_OD= -0.2758154E-01 O_TOT= -0.4968263E-01 <-- DLTA
 ------------------------------------------------------------------------------
 Cycle:      2
  WF centre and spread    1  (  0.000053,  3.691294,  0.000052 )     2.46900215
  WF centre and spread    2  ( -3.691296, -0.000052,  0.000052 )     2.46901355
  WF centre and spread    3  (  0.000053, -0.000052, -3.691294 )     2.46900381
  Sum of centres and spreads ( -3.691189,  3.691190, -3.691190 )     7.40701950
 
      2    -0.400E-02     0.0359756909        7.4070227702       0.01  <-- CONV
        O_D=      0.0017289 O_OD=      0.0134986 O_TOT=      7.4070228 <-- SPRD
 Delta: O_D= -0.1766824E-02 O_OD= -0.2230888E-02 O_TOT= -0.3997712E-02 <-- DLTA
 ------------------------------------------------------------------------------
 Cycle:      3
  WF centre and spread    1  (  0.000034,  3.691249,  0.000033 )     2.46827214
  WF centre and spread    2  ( -3.691250, -0.000033,  0.000033 )     2.46827885
  WF centre and spread    3  (  0.000034, -0.000033, -3.691249 )     2.46827581
  Sum of centres and spreads ( -3.691181,  3.691182, -3.691182 )     7.40482679
 
      3    -0.219E-02     0.0397159121        7.4048300646       0.02  <-- CONV
        O_D=      0.0008086 O_OD=      0.0122261 O_TOT=      7.4048301 <-- SPRD
 Delta: O_D= -0.9202638E-03 O_OD= -0.1272442E-02 O_TOT= -0.2192706E-02 <-- DLTA
 ------------------------------------------------------------------------------
 Cycle:      4
  WF centre and spread    1  (  0.000019,  3.691212,  0.000018 )     2.46784232
  WF centre and spread    2  ( -3.691213, -0.000018,  0.000018 )     2.46784702
  WF centre and spread    3  (  0.000019, -0.000018, -3.691212 )     2.46784316
  Sum of centres and spreads ( -3.691175,  3.691176, -3.691176 )     7.40353250
 
      4    -0.129E-02     0.0262298816        7.4035357704       0.03  <-- CONV
        O_D=      0.0003576 O_OD=      0.0113828 O_TOT=      7.4035358 <-- SPRD
 Delta: O_D= -0.4509872E-03 O_OD= -0.8433070E-03 O_TOT= -0.1294294E-02 <-- DLTA
 ------------------------------------------------------------------------------
 Cycle:      5
  WF centre and spread    1  (  0.000009,  3.691188,  0.000008 )     2.46761461
  WF centre and spread    2  ( -3.691189, -0.000008,  0.000008 )     2.46761575
  WF centre and spread    3  (  0.000009, -0.000008, -3.691188 )     2.46761435
  Sum of centres and spreads ( -3.691170,  3.691171, -3.691171 )     7.40284472
 
      5    -0.688E-03     0.0212333564        7.4028479882       0.04  <-- CONV
        O_D=      0.0001308 O_OD=      0.0109219 O_TOT=      7.4028480 <-- SPRD
 Delta: O_D= -0.2268100E-03 O_OD= -0.4609723E-03 O_TOT= -0.6877822E-03 <-- DLTA
 ------------------------------------------------------------------------------
 Cycle:      6
  WF centre and spread    1  (  0.000005,  3.691176,  0.000004 )     2.46752717
  WF centre and spread    2  ( -3.691178, -0.000004,  0.000003 )     2.46752746
  WF centre and spread    3  (  0.000005, -0.000004, -3.691176 )     2.46752700
  Sum of centres and spreads ( -3.691168,  3.691169, -3.691169 )     7.40258163
 
      6    -0.263E-03     0.0137676712        7.4025848962       0.04  <-- CONV
        O_D=      0.0000412 O_OD=      0.0107484 O_TOT=      7.4025849 <-- SPRD
 Delta: O_D= -0.8960087E-04 O_OD= -0.1734911E-03 O_TOT= -0.2630920E-03 <-- DLTA
 ------------------------------------------------------------------------------
 Cycle:      7
  WF centre and spread    1  (  0.000004,  3.691176,  0.000003 )     2.46750493
  WF centre and spread    2  ( -3.691177, -0.000003,  0.000003 )     2.46750496
  WF centre and spread    3  (  0.000004, -0.000003, -3.691175 )     2.46750477
  Sum of centres and spreads ( -3.691168,  3.691169, -3.691169 )     7.40251466
 
      7    -0.670E-04     0.0081136432        7.4025179313       0.05  <-- CONV
        O_D=      0.0000187 O_OD=      0.0107039 O_TOT=      7.4025179 <-- SPRD
 Delta: O_D= -0.2248486E-04 O_OD= -0.4448002E-04 O_TOT= -0.6696488E-04 <-- DLTA
 ------------------------------------------------------------------------------
 Cycle:      8
  WF centre and spread    1  (  0.000004,  3.691174,  0.000003 )     2.46749353
  WF centre and spread    2  ( -3.691176, -0.000003,  0.000003 )     2.46749348
  WF centre and spread    3  (  0.000004, -0.000003, -3.691174 )     2.46749340
  Sum of centres and spreads ( -3.691168,  3.691169, -3.691169 )     7.40248041
 
      8    -0.343E-04     0.0048148960        7.4024836795       0.06  <-- CONV
        O_D=      0.0000063 O_OD=      0.0106820 O_TOT=      7.4024837 <-- SPRD
 Delta: O_D= -0.1241051E-04 O_OD= -0.2184129E-04 O_TOT= -0.3425179E-04 <-- DLTA
 ------------------------------------------------------------------------------
 Cycle:      9
  WF centre and spread    1  (  0.000003,  3.691173,  0.000002 )     2.46748980
  WF centre and spread    2  ( -3.691174, -0.000002,  0.000002 )     2.46748977
  WF centre and spread    3  (  0.000003, -0.000002, -3.691173 )     2.46748975
  Sum of centres and spreads ( -3.691167,  3.691168, -3.691168 )     7.40246933
 
      9    -0.111E-04     0.0028945751        7.4024725954       0.06  <-- CONV
        O_D=      0.0000023 O_OD=      0.0106750 O_TOT=      7.4024726 <-- SPRD
 Delta: O_D= -0.4023594E-05 O_OD= -0.7060471E-05 O_TOT= -0.1108406E-04 <-- DLTA
 ------------------------------------------------------------------------------
 Cycle:     10
  WF centre and spread    1  (  0.000003,  3.691172,  0.000002 )     2.46748841
  WF centre and spread    2  ( -3.691173, -0.000002,  0.000002 )     2.46748840
  WF centre and spread    3  (  0.000003, -0.000002, -3.691172 )     2.46748838
  Sum of centres and spreads ( -3.691167,  3.691168, -3.691168 )     7.40246519
 
     10    -0.414E-05     0.0016428614        7.4024684559       0.07  <-- CONV
        O_D=      0.0000010 O_OD=      0.0106721 O_TOT=      7.4024685 <-- SPRD
 Delta: O_D= -0.1230787E-05 O_OD= -0.2908761E-05 O_TOT= -0.4139548E-05 <-- DLTA
 ------------------------------------------------------------------------------
 Cycle:     11
  WF centre and spread    1  (  0.000003,  3.691171,  0.000002 )     2.46748768
  WF centre and spread    2  ( -3.691172, -0.000002,  0.000001 )     2.46748768
  WF centre and spread    3  (  0.000003, -0.000002, -3.691171 )     2.46748766
  Sum of centres and spreads ( -3.691167,  3.691168, -3.691168 )     7.40246302
 
     11    -0.217E-05     0.0012106264        7.4024662869       0.08  <-- CONV
        O_D=      0.0000005 O_OD=      0.0106704 O_TOT=      7.4024663 <-- SPRD
 Delta: O_D= -0.5316721E-06 O_OD= -0.1637291E-05 O_TOT= -0.2168963E-05 <-- DLTA
 ------------------------------------------------------------------------------
 Cycle:     12
  WF centre and spread    1  (  0.000002,  3.691170,  0.000001 )     2.46748739
  WF centre and spread    2  ( -3.691172, -0.000001,  0.000001 )     2.46748738
  WF centre and spread    3  (  0.000002, -0.000001, -3.691170 )     2.46748737
  Sum of centres and spreads ( -3.691167,  3.691168, -3.691168 )     7.40246213
 
     12    -0.883E-06     0.0006970199        7.4024654038       0.08  <-- CONV
        O_D=      0.0000003 O_OD=      0.0106697 O_TOT=      7.4024654 <-- SPRD
 Delta: O_D= -0.1843692E-06 O_OD= -0.6987388E-06 O_TOT= -0.8831080E-06 <-- DLTA
 ------------------------------------------------------------------------------
 Cycle:     13
  WF centre and spread    1  (  0.000002,  3.691170,  0.000001 )     2.46748726
  WF centre and spread    2  ( -3.691171, -0.000001,  0.000001 )     2.46748726
  WF centre and spread    3  (  0.000002, -0.000001, -3.691170 )     2.46748725
  Sum of centres and spreads ( -3.691167,  3.691168, -3.691168 )     7.40246177
 
     13    -0.362E-06     0.0006140883        7.4024650419       0.09  <-- CONV
        O_D=      0.0000002 O_OD=      0.0106695 O_TOT=      7.4024650 <-- SPRD
 Delta: O_D= -0.1188506E-06 O_OD= -0.2431107E-06 O_TOT= -0.3619613E-06 <-- DLTA
 ------------------------------------------------------------------------------
 Cycle:     14
  WF centre and spread    1  (  0.000002,  3.691170,  0.000001 )     2.46748715
  WF centre and spread    2  ( -3.691171, -0.000001,  0.000001 )     2.46748716
  WF centre and spread    3  (  0.000002, -0.000001, -3.691170 )     2.46748715
  Sum of centres and spreads ( -3.691167,  3.691168, -3.691168 )     7.40246146
 
     14    -0.316E-06     0.0003905922        7.4024647261       0.10  <-- CONV
        O_D=      0.0000001 O_OD=      0.0106693 O_TOT=      7.4024647 <-- SPRD
 Delta: O_D= -0.8293975E-07 O_OD= -0.2328591E-06 O_TOT= -0.3157989E-06 <-- DLTA
 ------------------------------------------------------------------------------
 Cycle:     15
  WF centre and spread    1  (  0.000002,  3.691169,  0.000001 )     2.46748708
  WF centre and spread    2  ( -3.691170, -0.000001,  0.000001 )     2.46748709
  WF centre and spread    3  (  0.000002, -0.000001, -3.691169 )     2.46748708
  Sum of centres and spreads ( -3.691167,  3.691168, -3.691168 )     7.40246125
 
     15    -0.209E-06     0.0003510734        7.4024645168       0.11  <-- CONV
        O_D=      0.0000001 O_OD=      0.0106691 O_TOT=      7.4024645 <-- SPRD
 Delta: O_D= -0.4869200E-07 O_OD= -0.1605433E-06 O_TOT= -0.2092353E-06 <-- DLTA
 ------------------------------------------------------------------------------
 Cycle:     16
  WF centre and spread    1  (  0.000002,  3.691169,  0.000000 )     2.46748703
  WF centre and spread    2  ( -3.691170, -0.000000,  0.000000 )     2.46748704
  WF centre and spread    3  (  0.000002, -0.000000, -3.691168 )     2.46748703
  Sum of centres and spreads ( -3.691167,  3.691168, -3.691168 )     7.40246110
 
     16    -0.143E-06     0.0002780341        7.4024643735       0.11  <-- CONV
        O_D=      0.0000000 O_OD=      0.0106690 O_TOT=      7.4024644 <-- SPRD
 Delta: O_D= -0.2872377E-07 O_OD= -0.1145513E-06 O_TOT= -0.1432751E-06 <-- DLTA
 ------------------------------------------------------------------------------
 Cycle:     17
  WF centre and spread    1  (  0.000001,  3.691168,  0.000000 )     2.46748700
  WF centre and spread    2  ( -3.691169, -0.000000,  0.000000 )     2.46748700
  WF centre and spread    3  (  0.000001, -0.000000, -3.691168 )     2.46748700
  Sum of centres and spreads ( -3.691167,  3.691167, -3.691167 )     7.40246100
 
     17    -0.101E-06     0.0002426229        7.4024642721       0.12  <-- CONV
        O_D=      0.0000000 O_OD=      0.0106689 O_TOT=      7.4024643 <-- SPRD
 Delta: O_D= -0.2529494E-07 O_OD= -0.7614322E-07 O_TOT= -0.1014382E-06 <-- DLTA
 ------------------------------------------------------------------------------
 Cycle:     18
  WF centre and spread    1  (  0.000001,  3.691168,  0.000000 )     2.46748699
  WF centre and spread    2  ( -3.691169, -0.000000,  0.000000 )     2.46748699
  WF centre and spread    3  (  0.000001, -0.000000, -3.691168 )     2.46748699
  Sum of centres and spreads ( -3.691166,  3.691167, -3.691167 )     7.40246097
 
     18    -0.369E-07     0.0001661440        7.4024642352       0.13  <-- CONV
        O_D=      0.0000000 O_OD=      0.0106689 O_TOT=      7.4024642 <-- SPRD
 Delta: O_D= -0.1220597E-07 O_OD= -0.2474164E-07 O_TOT= -0.3694761E-07 <-- DLTA
 ------------------------------------------------------------------------------
 Cycle:     19
  WF centre and spread    1  (  0.000001,  3.691168,  0.000000 )     2.46748698
  WF centre and spread    2  ( -3.691169, -0.000000,  0.000000 )     2.46748699
  WF centre and spread    3  (  0.000001, -0.000000, -3.691168 )     2.46748698
  Sum of centres and spreads ( -3.691166,  3.691167, -3.691167 )     7.40246095
 
     19    -0.162E-07     0.0001254768        7.4024642190       0.13  <-- CONV
        O_D=      0.0000000 O_OD=      0.0106689 O_TOT=      7.4024642 <-- SPRD
 Delta: O_D= -0.5650844E-08 O_OD= -0.1055201E-07 O_TOT= -0.1620286E-07 <-- DLTA
 ------------------------------------------------------------------------------
 Cycle:     20
  WF centre and spread    1  (  0.000001,  3.691168,  0.000000 )     2.46748698
  WF centre and spread    2  ( -3.691169, -0.000000,  0.000000 )     2.46748698
  WF centre and spread    3  (  0.000001, -0.000000, -3.691168 )     2.46748698
  Sum of centres and spreads ( -3.691166,  3.691167, -3.691167 )     7.40246094
 
     20    -0.107E-07     0.0000798591        7.4024642083       0.14  <-- CONV
        O_D=      0.0000000 O_OD=      0.0106689 O_TOT=      7.4024642 <-- SPRD
 Delta: O_D= -0.3524378E-08 O_OD= -0.7162498E-08 O_TOT= -0.1068688E-07 <-- DLTA
 ------------------------------------------------------------------------------
 Cycle:     21
  WF centre and spread    1  (  0.000001,  3.691168,  0.000000 )     2.46748698
  WF centre and spread    2  ( -3.691169, -0.000000,  0.000000 )     2.46748698
  WF centre and spread    3  (  0.000001, -0.000000, -3.691167 )     2.46748698
  Sum of centres and spreads ( -3.691166,  3.691167, -3.691167 )     7.40246093
 
     21    -0.454E-08     0.0000594313        7.4024642037       0.15  <-- CONV
        O_D=      0.0000000 O_OD=      0.0106689 O_TOT=      7.4024642 <-- SPRD
 Delta: O_D= -0.1236863E-08 O_OD= -0.3305355E-08 O_TOT= -0.4542218E-08 <-- DLTA
 ------------------------------------------------------------------------------
 Cycle:     22
  WF centre and spread    1  (  0.000001,  3.691168,  0.000000 )     2.46748698
  WF centre and spread    2  ( -3.691169, -0.000000,  0.000000 )     2.46748698
  WF centre and spread    3  (  0.000001, -0.000000, -3.691167 )     2.46748698
  Sum of centres and spreads ( -3.691166,  3.691167, -3.691167 )     7.40246093
 
     22    -0.481E-11     0.0000467729        7.4024642037       0.15  <-- CONV
        O_D=      0.0000000 O_OD=      0.0106689 O_TOT=      7.4024642 <-- SPRD
 Delta: O_D= -0.1756476E-11 O_OD= -0.3055688E-11 O_TOT= -0.4813039E-11 <-- DLTA
 ------------------------------------------------------------------------------
 Cycle:     23
  WF centre and spread    1  (  0.000001,  3.691168,  0.000000 )     2.46748697
  WF centre and spread    2  ( -3.691169, -0.000000,  0.000000 )     2.46748698
  WF centre and spread    3  (  0.000001, -0.000000, -3.691167 )     2.46748697
  Sum of centres and spreads ( -3.691166,  3.691167, -3.691167 )     7.40246093
 
     23    -0.276E-08     0.0000467380        7.4024642010       0.16  <-- CONV
        O_D=      0.0000000 O_OD=      0.0106689 O_TOT=      7.4024642 <-- SPRD
 Delta: O_D= -0.7993520E-09 O_OD= -0.1960461E-08 O_TOT= -0.2759813E-08 <-- DLTA
 ------------------------------------------------------------------------------
 Cycle:     24
  WF centre and spread    1  (  0.000001,  3.691168,  0.000000 )     2.46748697
  WF centre and spread    2  ( -3.691169, -0.000000,  0.000000 )     2.46748698
  WF centre and spread    3  (  0.000001, -0.000000, -3.691167 )     2.46748697
  Sum of centres and spreads ( -3.691166,  3.691167, -3.691167 )     7.40246093
 
     24    -0.117E-08     0.0000294591        7.4024641998       0.17  <-- CONV
        O_D=      0.0000000 O_OD=      0.0106689 O_TOT=      7.4024642 <-- SPRD
 Delta: O_D= -0.3115439E-09 O_OD= -0.8601199E-09 O_TOT= -0.1171664E-08 <-- DLTA
 ------------------------------------------------------------------------------
 Cycle:     25
  WF centre and spread    1  (  0.000001,  3.691168,  0.000000 )     2.46748697
  WF centre and spread    2  ( -3.691169, -0.000000,  0.000000 )     2.46748698
  WF centre and spread    3  (  0.000001, -0.000000, -3.691167 )     2.46748697
  Sum of centres and spreads ( -3.691166,  3.691167, -3.691167 )     7.40246093
 
     25    -0.152E-11     0.0000246040        7.4024641998       0.17  <-- CONV
        O_D=      0.0000000 O_OD=      0.0106689 O_TOT=      7.4024642 <-- SPRD
 Delta: O_D= -0.6925021E-12 O_OD= -0.8290781E-12 O_TOT= -0.1521450E-11 <-- DLTA
 ------------------------------------------------------------------------------
 Cycle:     26
  WF centre and spread    1  (  0.000001,  3.691168,  0.000000 )     2.46748697
  WF centre and spread    2  ( -3.691169, -0.000000,  0.000000 )     2.46748698
  WF centre and spread    3  (  0.000001, -0.000000, -3.691167 )     2.46748697
  Sum of centres and spreads ( -3.691166,  3.691167, -3.691167 )     7.40246093
 
     26    -0.528E-09     0.0000245691        7.4024641993       0.18  <-- CONV
        O_D=      0.0000000 O_OD=      0.0106689 O_TOT=      7.4024642 <-- SPRD
 Delta: O_D= -0.1918542E-09 O_OD= -0.3357699E-09 O_TOT= -0.5276233E-09 <-- DLTA
 ------------------------------------------------------------------------------
 Cycle:     27
  WF centre and spread    1  (  0.000001,  3.691168,  0.000000 )     2.46748697
  WF centre and spread    2  ( -3.691169, -0.000000,  0.000000 )     2.46748698
  WF centre and spread    3  (  0.000001, -0.000000, -3.691167 )     2.46748697
  Sum of centres and spreads ( -3.691166,  3.691167, -3.691167 )     7.40246093
 
     27    -0.561E-12     0.0000134074        7.4024641993       0.18  <-- CONV
        O_D=      0.0000000 O_OD=      0.0106689 O_TOT=      7.4024642 <-- SPRD
 Delta: O_D= -0.1149681E-12 O_OD= -0.4451908E-12 O_TOT= -0.5613288E-12 <-- DLTA
 ------------------------------------------------------------------------------
 Cycle:     28
  WF centre and spread    1  (  0.000001,  3.691168,  0.000000 )     2.46748697
  WF centre and spread    2  ( -3.691169, -0.000000,  0.000000 )     2.46748698
  WF centre and spread    3  (  0.000001, -0.000000, -3.691167 )     2.46748697
  Sum of centres and spreads ( -3.691166,  3.691167, -3.691167 )     7.40246093
 
     28    -0.101E-11     0.0000134080        7.4024641993       0.18  <-- CONV
        O_D=      0.0000000 O_OD=      0.0106689 O_TOT=      7.4024642 <-- SPRD
 Delta: O_D= -0.2730953E-12 O_OD= -0.7387285E-12 O_TOT= -0.1010747E-11 <-- DLTA
 ------------------------------------------------------------------------------
 Cycle:     29
  WF centre and spread    1  (  0.000001,  3.691168,  0.000000 )     2.46748697
  WF centre and spread    2  ( -3.691169, -0.000000,  0.000000 )     2.46748698
  WF centre and spread    3  (  0.000001, -0.000000, -3.691167 )     2.46748697
  Sum of centres and spreads ( -3.691166,  3.691167, -3.691167 )     7.40246093
 
     29    -0.146E-11     0.0000134016        7.4024641993       0.19  <-- CONV
        O_D=      0.0000000 O_OD=      0.0106689 O_TOT=      7.4024642 <-- SPRD
 Delta: O_D= -0.4304320E-12 O_OD= -0.1031142E-11 O_TOT= -0.1461942E-11 <-- DLTA
 ------------------------------------------------------------------------------
 Cycle:     30
  WF centre and spread    1  (  0.000001,  3.691168,  0.000000 )     2.46748697
  WF centre and spread    2  ( -3.691169, -0.000000,  0.000000 )     2.46748698
  WF centre and spread    3  (  0.000001, -0.000000, -3.691167 )     2.46748697
  Sum of centres and spreads ( -3.691166,  3.691167, -3.691167 )     7.40246093
 
     30    -0.191E-11     0.0000133880        7.4024641993       0.19  <-- CONV
        O_D=      0.0000000 O_OD=      0.0106689 O_TOT=      7.4024642 <-- SPRD
 Delta: O_D= -0.5859526E-12 O_OD= -0.1321622E-11 O_TOT= -0.1907807E-11 <-- DLTA
 ------------------------------------------------------------------------------
 Cycle:     31
  WF centre and spread    1  (  0.000001,  3.691168,  0.000000 )     2.46748697
  WF centre and spread    2  ( -3.691169, -0.000000,  0.000000 )     2.46748698
  WF centre and spread    3  (  0.000001, -0.000000, -3.691167 )     2.46748697
  Sum of centres and spreads ( -3.691166,  3.691167, -3.691167 )     7.40246093
 
     31    -0.449E-12     0.0000133675        7.4024641993       0.20  <-- CONV
        O_D=      0.0000000 O_OD=      0.0106689 O_TOT=      7.4024642 <-- SPRD
 Delta: O_D= -0.1564242E-12 O_OD= -0.2929636E-12 O_TOT= -0.4494183E-12 <-- DLTA
 ------------------------------------------------------------------------------
 Cycle:     32
  WF centre and spread    1  (  0.000001,  3.691168,  0.000000 )     2.46748697
  WF centre and spread    2  ( -3.691169, -0.000000,  0.000000 )     2.46748698
  WF centre and spread    3  (  0.000001, -0.000000, -3.691167 )     2.46748697
  Sum of centres and spreads ( -3.691166,  3.691167, -3.691167 )     7.40246093
 
     32    -0.897E-12     0.0000133606        7.4024641993       0.20  <-- CONV
        O_D=      0.0000000 O_OD=      0.0106689 O_TOT=      7.4024642 <-- SPRD
 Delta: O_D= -0.3119978E-12 O_OD= -0.5852784E-12 O_TOT= -0.8970602E-12 <-- DLTA
 ------------------------------------------------------------------------------
 Cycle:     33
  WF centre and spread    1  (  0.000001,  3.691168,  0.000000 )     2.46748697
  WF centre and spread    2  ( -3.691169, -0.000000,  0.000000 )     2.46748698
  WF centre and spread    3  (  0.000001, -0.000000, -3.691167 )     2.46748697
  Sum of centres and spreads ( -3.691166,  3.691167, -3.691167 )     7.40246093
 
     33    -0.134E-11     0.0000133466        7.4024641993       0.20  <-- CONV
        O_D=      0.0000000 O_OD=      0.0106689 O_TOT=      7.4024642 <-- SPRD
 Delta: O_D= -0.4657188E-12 O_OD= -0.8762643E-12 O_TOT= -0.1342038E-11 <-- DLTA
 ------------------------------------------------------------------------------
 Cycle:     34
  WF centre and spread    1  (  0.000001,  3.691167,  0.000000 )     2.46748697
  WF centre and spread    2  ( -3.691169, -0.000000,  0.000000 )     2.46748698
  WF centre and spread    3  (  0.000001, -0.000000, -3.691167 )     2.46748697
  Sum of centres and spreads ( -3.691166,  3.691167, -3.691167 )     7.40246093
 
     34    -0.424E-09     0.0000133258        7.4024641988       0.21  <-- CONV
        O_D=      0.0000000 O_OD=      0.0106689 O_TOT=      7.4024642 <-- SPRD
 Delta: O_D=  0.5881643E-10 O_OD= -0.4824062E-09 O_TOT= -0.4235901E-09 <-- DLTA
 ------------------------------------------------------------------------------
 Cycle:     35
  WF centre and spread    1  (  0.000001,  3.691167,  0.000000 )     2.46748697
  WF centre and spread    2  ( -3.691169, -0.000000,  0.000000 )     2.46748698
  WF centre and spread    3  (  0.000001, -0.000000, -3.691167 )     2.46748697
  Sum of centres and spreads ( -3.691166,  3.691167, -3.691167 )     7.40246093
 
     35    -0.138E-11     0.0000234129        7.4024641988       0.21  <-- CONV
        O_D=      0.0000000 O_OD=      0.0106689 O_TOT=      7.4024642 <-- SPRD
 Delta: O_D= -0.1070047E-11 O_OD= -0.3073999E-12 O_TOT= -0.1377565E-11 <-- DLTA
 ------------------------------------------------------------------------------
 Cycle:     36
  WF centre and spread    1  (  0.000001,  3.691167,  0.000000 )     2.46748697
  WF centre and spread    2  ( -3.691169, -0.000000,  0.000000 )     2.46748698
  WF centre and spread    3  (  0.000001, -0.000000, -3.691167 )     2.46748697
  Sum of centres and spreads ( -3.691166,  3.691167, -3.691167 )     7.40246093
 
     36    -0.356E-09     0.0000233678        7.4024641985       0.22  <-- CONV
        O_D=      0.0000000 O_OD=      0.0106689 O_TOT=      7.4024642 <-- SPRD
 Delta: O_D= -0.2346317E-09 O_OD= -0.1213668E-09 O_TOT= -0.3559988E-09 <-- DLTA
 ------------------------------------------------------------------------------
 Cycle:     37
  WF centre and spread    1  (  0.000001,  3.691167,  0.000000 )     2.46748697
  WF centre and spread    2  ( -3.691169, -0.000000,  0.000000 )     2.46748698
  WF centre and spread    3  (  0.000001, -0.000000, -3.691167 )     2.46748697
  Sum of centres and spreads ( -3.691166,  3.691167, -3.691167 )     7.40246093
 
     37    -0.228E-12     0.0000098480        7.4024641985       0.22  <-- CONV
        O_D=      0.0000000 O_OD=      0.0106689 O_TOT=      7.4024642 <-- SPRD
 Delta: O_D= -0.2472032E-13 O_OD= -0.2040833E-12 O_TOT= -0.2282619E-12 <-- DLTA
 ------------------------------------------------------------------------------
 Cycle:     38
  WF centre and spread    1  (  0.000001,  3.691167,  0.000000 )     2.46748697
  WF centre and spread    2  ( -3.691169, -0.000000,  0.000000 )     2.46748698
  WF centre and spread    3  (  0.000001, -0.000000, -3.691167 )     2.46748697
  Sum of centres and spreads ( -3.691166,  3.691167, -3.691167 )     7.40246093
 
     38    -0.473E-12     0.0000098496        7.4024641985       0.23  <-- CONV
        O_D=      0.0000000 O_OD=      0.0106689 O_TOT=      7.4024642 <-- SPRD
 Delta: O_D= -0.1167583E-12 O_OD= -0.3560346E-12 O_TOT= -0.4725109E-12 <-- DLTA
 ------------------------------------------------------------------------------
 Cycle:     39
  WF centre and spread    1  (  0.000001,  3.691167,  0.000000 )     2.46748697
  WF centre and spread    2  ( -3.691169, -0.000000,  0.000000 )     2.46748698
  WF centre and spread    3  (  0.000001, -0.000000, -3.691167 )     2.46748697
  Sum of centres and spreads ( -3.691166,  3.691167, -3.691167 )     7.40246093
 
     39    -0.717E-12     0.0000098453        7.4024641985       0.23  <-- CONV
        O_D=      0.0000000 O_OD=      0.0106689 O_TOT=      7.4024642 <-- SPRD
 Delta: O_D= -0.2083952E-12 O_OD= -0.5074465E-12 O_TOT= -0.7167600E-12 <-- DLTA
 ------------------------------------------------------------------------------
 Cycle:     40
  WF centre and spread    1  (  0.000001,  3.691167,  0.000000 )     2.46748697
  WF centre and spread    2  ( -3.691169, -0.000000,  0.000000 )     2.46748698
  WF centre and spread    3  (  0.000001, -0.000000, -3.691167 )     2.46748697
  Sum of centres and spreads ( -3.691166,  3.691167, -3.691167 )     7.40246093
 
     40    -0.957E-12     0.0000098349        7.4024641985       0.24  <-- CONV
        O_D=      0.0000000 O_OD=      0.0106689 O_TOT=      7.4024642 <-- SPRD
 Delta: O_D= -0.2988931E-12 O_OD= -0.6578713E-12 O_TOT= -0.9565682E-12 <-- DLTA
 ------------------------------------------------------------------------------
 Cycle:     41
  WF centre and spread    1  (  0.000001,  3.691167,  0.000000 )     2.46748697
  WF centre and spread    2  ( -3.691169, -0.000000,  0.000000 )     2.46748698
  WF centre and spread    3  (  0.000001, -0.000000, -3.691167 )     2.46748697
  Sum of centres and spreads ( -3.691166,  3.691167, -3.691167 )     7.40246093
 
     41    -0.242E-12     0.0000098186        7.4024641985       0.24  <-- CONV
        O_D=      0.0000000 O_OD=      0.0106689 O_TOT=      7.4024642 <-- SPRD
 Delta: O_D= -0.9082125E-13 O_OD= -0.1515888E-12 O_TOT= -0.2415845E-12 <-- DLTA
 ------------------------------------------------------------------------------
 Cycle:     42
  WF centre and spread    1  (  0.000001,  3.691167,  0.000000 )     2.46748697
  WF centre and spread    2  ( -3.691169, -0.000000,  0.000000 )     2.46748698
  WF centre and spread    3  (  0.000001, -0.000000, -3.691167 )     2.46748697
  Sum of centres and spreads ( -3.691166,  3.691167, -3.691167 )     7.40246093
 
     42    -0.484E-12     0.0000098127        7.4024641985       0.24  <-- CONV
        O_D=      0.0000000 O_OD=      0.0106689 O_TOT=      7.4024642 <-- SPRD
 Delta: O_D= -0.1810254E-12 O_OD= -0.3029486E-12 O_TOT= -0.4840572E-12 <-- DLTA
 ------------------------------------------------------------------------------
 Cycle:     43
  WF centre and spread    1  (  0.000001,  3.691167,  0.000000 )     2.46748697
  WF centre and spread    2  ( -3.691169, -0.000000,  0.000000 )     2.46748698
  WF centre and spread    3  (  0.000001, -0.000000, -3.691167 )     2.46748697
  Sum of centres and spreads ( -3.691166,  3.691167, -3.691167 )     7.40246093
 
     43    -0.724E-12     0.0000098009        7.4024641985       0.25  <-- CONV
        O_D=      0.0000000 O_OD=      0.0106689 O_TOT=      7.4024642 <-- SPRD
 Delta: O_D= -0.2698958E-12 O_OD= -0.4535799E-12 O_TOT= -0.7238654E-12 <-- DLTA
 ------------------------------------------------------------------------------
 Cycle:     44
  WF centre and spread    1  (  0.000001,  3.691167,  0.000000 )     2.46748697
  WF centre and spread    2  ( -3.691169, -0.000000,  0.000000 )     2.46748698
  WF centre and spread    3  (  0.000001, -0.000000, -3.691167 )     2.46748697
  Sum of centres and spreads ( -3.691166,  3.691167, -3.691167 )     7.40246093
 
     44    -0.960E-12     0.0000097833        7.4024641985       0.25  <-- CONV
        O_D=      0.0000000 O_OD=      0.0106689 O_TOT=      7.4024642 <-- SPRD
 Delta: O_D= -0.3567390E-12 O_OD= -0.6031148E-12 O_TOT= -0.9601209E-12 <-- DLTA
 ------------------------------------------------------------------------------
 Cycle:     45
  WF centre and spread    1  (  0.000001,  3.691167,  0.000000 )     2.46748697
  WF centre and spread    2  ( -3.691169, -0.000000,  0.000000 )     2.46748698
  WF centre and spread    3  (  0.000001, -0.000000, -3.691167 )     2.46748697
  Sum of centres and spreads ( -3.691166,  3.691167, -3.691167 )     7.40246093
 
     45    -0.200E-09     0.0000097600        7.4024641983       0.26  <-- CONV
        O_D=      0.0000000 O_OD=      0.0106689 O_TOT=      7.4024642 <-- SPRD
 Delta: O_D=  0.2963681E-10 O_OD= -0.2300821E-09 O_TOT= -0.2004450E-09 <-- DLTA
 ------------------------------------------------------------------------------
 Cycle:     46
  WF centre and spread    1  (  0.000001,  3.691167,  0.000000 )     2.46748697
  WF centre and spread    2  ( -3.691169, -0.000000,  0.000000 )     2.46748698
  WF centre and spread    3  (  0.000001, -0.000000, -3.691167 )     2.46748697
  Sum of centres and spreads ( -3.691166,  3.691167, -3.691167 )     7.40246093
 
     46    -0.969E-11     0.0000155376        7.4024641983       0.27  <-- CONV
        O_D=      0.0000000 O_OD=      0.0106689 O_TOT=      7.4024642 <-- SPRD
 Delta: O_D=  0.5100435E-10 O_OD= -0.6069204E-10 O_TOT= -0.9688250E-11 <-- DLTA
 ------------------------------------------------------------------------------
 Cycle:     47
  WF centre and spread    1  (  0.000001,  3.691167,  0.000000 )     2.46748697
  WF centre and spread    2  ( -3.691169, -0.000000,  0.000000 )     2.46748698
  WF centre and spread    3  (  0.000001, -0.000000, -3.691167 )     2.46748697
  Sum of centres and spreads ( -3.691166,  3.691167, -3.691167 )     7.40246093
 
     47    -0.913E-12     0.0000190638        7.4024641983       0.27  <-- CONV
        O_D=      0.0000000 O_OD=      0.0106689 O_TOT=      7.4024642 <-- SPRD
 Delta: O_D= -0.7844553E-12 O_OD= -0.1287945E-12 O_TOT= -0.9130474E-12 <-- DLTA
 ------------------------------------------------------------------------------
 Cycle:     48
  WF centre and spread    1  (  0.000001,  3.691167,  0.000000 )     2.46748697
  WF centre and spread    2  ( -3.691169, -0.000000,  0.000000 )     2.46748698
  WF centre and spread    3  (  0.000001, -0.000000, -3.691167 )     2.46748697
  Sum of centres and spreads ( -3.691166,  3.691167, -3.691167 )     7.40246093
 
     48    -0.227E-09     0.0000190256        7.4024641980       0.28  <-- CONV
        O_D=      0.0000000 O_OD=      0.0106689 O_TOT=      7.4024642 <-- SPRD
 Delta: O_D= -0.1719121E-09 O_OD= -0.5505879E-10 O_TOT= -0.2269704E-09 <-- DLTA
 ------------------------------------------------------------------------------
 Cycle:     49
  WF centre and spread    1  (  0.000001,  3.691167,  0.000000 )     2.46748697
  WF centre and spread    2  ( -3.691169, -0.000000,  0.000000 )     2.46748698
  WF centre and spread    3  (  0.000001, -0.000000, -3.691167 )     2.46748697
  Sum of centres and spreads ( -3.691166,  3.691167, -3.691167 )     7.40246093
 
     49    -0.130E-12     0.0000071959        7.4024641980       0.28  <-- CONV
        O_D=      0.0000000 O_OD=      0.0106689 O_TOT=      7.4024642 <-- SPRD
 Delta: O_D= -0.1293399E-13 O_OD= -0.1166203E-12 O_TOT= -0.1296740E-12 <-- DLTA
 ------------------------------------------------------------------------------
 Cycle:     50
  WF centre and spread    1  (  0.000001,  3.691167,  0.000000 )     2.46748697
  WF centre and spread    2  ( -3.691169, -0.000000,  0.000000 )     2.46748698
  WF centre and spread    3  (  0.000001, -0.000000, -3.691167 )     2.46748697
  Sum of centres and spreads ( -3.691166,  3.691167, -3.691167 )     7.40246093
 
     50    -0.260E-12     0.0000071972        7.4024641980       0.28  <-- CONV
        O_D=      0.0000000 O_OD=      0.0106689 O_TOT=      7.4024642 <-- SPRD
 Delta: O_D= -0.5281982E-13 O_OD= -0.2070705E-12 O_TOT= -0.2602363E-12 <-- DLTA
 ------------------------------------------------------------------------------
 Cycle:     51
  WF centre and spread    1  (  0.000001,  3.691167,  0.000000 )     2.46748697
  WF centre and spread    2  ( -3.691169, -0.000000,  0.000000 )     2.46748698
  WF centre and spread    3  (  0.000001, -0.000000, -3.691167 )     2.46748697
  Sum of centres and spreads ( -3.691166,  3.691167, -3.691167 )     7.40246093
 
     51    -0.389E-12     0.0000071956        7.4024641980       0.29  <-- CONV
        O_D=      0.0000000 O_OD=      0.0106689 O_TOT=      7.4024642 <-- SPRD
 Delta: O_D= -0.9263057E-13 O_OD= -0.2972379E-12 O_TOT= -0.3890221E-12 <-- DLTA
 ------------------------------------------------------------------------------
 Cycle:     52
  WF centre and spread    1  (  0.000001,  3.691167,  0.000000 )     2.46748697
  WF centre and spread    2  ( -3.691169, -0.000000,  0.000000 )     2.46748698
  WF centre and spread    3  (  0.000001, -0.000000, -3.691167 )     2.46748697
  Sum of centres and spreads ( -3.691166,  3.691167, -3.691167 )     7.40246093
 
     52    -0.520E-12     0.0000071910        7.4024641980       0.29  <-- CONV
        O_D=      0.0000000 O_OD=      0.0106689 O_TOT=      7.4024642 <-- SPRD
 Delta: O_D= -0.1321258E-12 O_OD= -0.3870480E-12 O_TOT= -0.5195844E-12 <-- DLTA
 ------------------------------------------------------------------------------
 Cycle:     53
  WF centre and spread    1  (  0.000001,  3.691167,  0.000000 )     2.46748697
  WF centre and spread    2  ( -3.691169, -0.000000,  0.000000 )     2.46748698
  WF centre and spread    3  (  0.000001, -0.000000, -3.691167 )     2.46748697
  Sum of centres and spreads ( -3.691166,  3.691167, -3.691167 )     7.40246093
 
     53    -0.130E-12     0.0000071836        7.4024641980       0.30  <-- CONV
        O_D=      0.0000000 O_OD=      0.0106689 O_TOT=      7.4024642 <-- SPRD
 Delta: O_D= -0.3954953E-13 O_OD= -0.9022817E-13 O_TOT= -0.1296740E-12 <-- DLTA
 ------------------------------------------------------------------------------
 Cycle:     54
  WF centre and spread    1  (  0.000001,  3.691167,  0.000000 )     2.46748697
  WF centre and spread    2  ( -3.691169, -0.000000,  0.000000 )     2.46748698
  WF centre and spread    3  (  0.000001, -0.000000, -3.691167 )     2.46748697
  Sum of centres and spreads ( -3.691166,  3.691167, -3.691167 )     7.40246093
 
     54    -0.259E-12     0.0000071808        7.4024641980       0.30  <-- CONV
        O_D=      0.0000000 O_OD=      0.0106689 O_TOT=      7.4024642 <-- SPRD
 Delta: O_D= -0.7889362E-13 O_OD= -0.1803835E-12 O_TOT= -0.2593481E-12 <-- DLTA
 ------------------------------------------------------------------------------
 Cycle:     55
  WF centre and spread    1  (  0.000001,  3.691167,  0.000000 )     2.46748697
  WF centre and spread    2  ( -3.691169, -0.000000,  0.000000 )     2.46748698
  WF centre and spread    3  (  0.000001, -0.000000, -3.691167 )     2.46748697
  Sum of centres and spreads ( -3.691166,  3.691167, -3.691167 )     7.40246093
 
     55    -0.388E-12     0.0000071750        7.4024641980       0.30  <-- CONV
        O_D=      0.0000000 O_OD=      0.0106689 O_TOT=      7.4024642 <-- SPRD
 Delta: O_D= -0.1177980E-12 O_OD= -0.2702196E-12 O_TOT= -0.3881340E-12 <-- DLTA
 ------------------------------------------------------------------------------
 Cycle:     56
  WF centre and spread    1  (  0.000001,  3.691167,  0.000000 )     2.46748697
  WF centre and spread    2  ( -3.691169, -0.000000,  0.000000 )     2.46748698
  WF centre and spread    3  (  0.000001, -0.000000, -3.691167 )     2.46748697
  Sum of centres and spreads ( -3.691166,  3.691167, -3.691167 )     7.40246093
 
     56    -0.516E-12     0.0000071665        7.4024641980       0.31  <-- CONV
        O_D=      0.0000000 O_OD=      0.0106689 O_TOT=      7.4024642 <-- SPRD
 Delta: O_D= -0.1560350E-12 O_OD= -0.3595926E-12 O_TOT= -0.5160317E-12 <-- DLTA
 ------------------------------------------------------------------------------
 Cycle:     57
  WF centre and spread    1  (  0.000001,  3.691167,  0.000000 )     2.46748697
  WF centre and spread    2  ( -3.691169, -0.000000,  0.000000 )     2.46748698
  WF centre and spread    3  (  0.000001, -0.000000, -3.691167 )     2.46748697
  Sum of centres and spreads ( -3.691166,  3.691167, -3.691167 )     7.40246093
 
     57    -0.641E-12     0.0000071552        7.4024641980       0.31  <-- CONV
        O_D=      0.0000000 O_OD=      0.0106689 O_TOT=      7.4024642 <-- SPRD
 Delta: O_D= -0.1933872E-12 O_OD= -0.4483948E-12 O_TOT= -0.6412648E-12 <-- DLTA
 ------------------------------------------------------------------------------
 Cycle:     58
  WF centre and spread    1  (  0.000001,  3.691167,  0.000000 )     2.46748697
  WF centre and spread    2  ( -3.691169, -0.000000,  0.000000 )     2.46748698
  WF centre and spread    3  (  0.000001, -0.000000, -3.691167 )     2.46748697
  Sum of centres and spreads ( -3.691166,  3.691167, -3.691167 )     7.40246093
 
     58    -0.766E-12     0.0000071413        7.4024641980       0.31  <-- CONV
        O_D=      0.0000000 O_OD=      0.0106689 O_TOT=      7.4024642 <-- SPRD
 Delta: O_D= -0.2296506E-12 O_OD= -0.5363505E-12 O_TOT= -0.7664980E-12 <-- DLTA
 ------------------------------------------------------------------------------
 Cycle:     59
  WF centre and spread    1  (  0.000001,  3.691167,  0.000000 )     2.46748697
  WF centre and spread    2  ( -3.691169, -0.000000,  0.000000 )     2.46748698
  WF centre and spread    3  (  0.000001, -0.000000, -3.691167 )     2.46748697
  Sum of centres and spreads ( -3.691166,  3.691167, -3.691167 )     7.40246093
 
     59    -0.127E-12     0.0000071248        7.4024641980       0.32  <-- CONV
        O_D=      0.0000000 O_OD=      0.0106689 O_TOT=      7.4024642 <-- SPRD
 Delta: O_D= -0.3778488E-13 O_OD= -0.8986735E-13 O_TOT= -0.1270095E-12 <-- DLTA
 ------------------------------------------------------------------------------
 Cycle:     60
  WF centre and spread    1  (  0.000001,  3.691167,  0.000000 )     2.46748697
  WF centre and spread    2  ( -3.691169, -0.000000,  0.000000 )     2.46748698
  WF centre and spread    3  (  0.000001, -0.000000, -3.691167 )     2.46748697
  Sum of centres and spreads ( -3.691166,  3.691167, -3.691167 )     7.40246093
 
     60    -0.255E-12     0.0000071221        7.4024641980       0.32  <-- CONV
        O_D=      0.0000000 O_OD=      0.0106689 O_TOT=      7.4024642 <-- SPRD
 Delta: O_D= -0.7538319E-13 O_OD= -0.1796757E-12 O_TOT= -0.2549072E-12 <-- DLTA
 ------------------------------------------------------------------------------
 Cycle:     61
  WF centre and spread    1  (  0.000001,  3.691167,  0.000000 )     2.46748697
  WF centre and spread    2  ( -3.691169, -0.000000,  0.000000 )     2.46748698
  WF centre and spread    3  (  0.000001, -0.000000, -3.691167 )     2.46748697
  Sum of centres and spreads ( -3.691166,  3.691167, -3.691167 )     7.40246093
 
     61    -0.382E-12     0.0000071168        7.4024641980       0.33  <-- CONV
        O_D=      0.0000000 O_OD=      0.0106689 O_TOT=      7.4024642 <-- SPRD
 Delta: O_D= -0.1125825E-12 O_OD= -0.2691840E-12 O_TOT= -0.3819167E-12 <-- DLTA
 ------------------------------------------------------------------------------
 Cycle:     62
  WF centre and spread    1  (  0.000001,  3.691167,  0.000000 )     2.46748697
  WF centre and spread    2  ( -3.691169, -0.000000,  0.000000 )     2.46748698
  WF centre and spread    3  (  0.000001, -0.000000, -3.691167 )     2.46748697
  Sum of centres and spreads ( -3.691166,  3.691167, -3.691167 )     7.40246093
 
     62    -0.508E-12     0.0000071088        7.4024641980       0.33  <-- CONV
        O_D=      0.0000000 O_OD=      0.0106689 O_TOT=      7.4024642 <-- SPRD
 Delta: O_D= -0.1491763E-12 O_OD= -0.3582690E-12 O_TOT= -0.5080381E-12 <-- DLTA
 ------------------------------------------------------------------------------
 Cycle:     63
  WF centre and spread    1  (  0.000001,  3.691167,  0.000000 )     2.46748697
  WF centre and spread    2  ( -3.691169, -0.000000,  0.000000 )     2.46748698
  WF centre and spread    3  (  0.000001, -0.000000, -3.691167 )     2.46748697
  Sum of centres and spreads ( -3.691166,  3.691167, -3.691167 )     7.40246093
 
     63    -0.631E-12     0.0000070983        7.4024641980       0.33  <-- CONV
        O_D=      0.0000000 O_OD=      0.0106689 O_TOT=      7.4024642 <-- SPRD
 Delta: O_D= -0.1849670E-12 O_OD= -0.4467850E-12 O_TOT= -0.6314949E-12 <-- DLTA
 ------------------------------------------------------------------------------
 Cycle:     64
  WF centre and spread    1  (  0.000001,  3.691167,  0.000000 )     2.46748697
  WF centre and spread    2  ( -3.691169, -0.000000,  0.000000 )     2.46748698
  WF centre and spread    3  (  0.000001, -0.000000, -3.691167 )     2.46748697
  Sum of centres and spreads ( -3.691166,  3.691167, -3.691167 )     7.40246093
 
     64    -0.754E-12     0.0000070854        7.4024641980       0.34  <-- CONV
        O_D=      0.0000000 O_OD=      0.0106689 O_TOT=      7.4024642 <-- SPRD
 Delta: O_D= -0.2197689E-12 O_OD= -0.5344839E-12 O_TOT= -0.7540635E-12 <-- DLTA
 ------------------------------------------------------------------------------
 Cycle:     65
  WF centre and spread    1  (  0.000001,  3.691167,  0.000000 )     2.46748697
  WF centre and spread    2  ( -3.691169, -0.000000,  0.000000 )     2.46748698
  WF centre and spread    3  (  0.000001, -0.000000, -3.691167 )     2.46748697
  Sum of centres and spreads ( -3.691166,  3.691167, -3.691167 )     7.40246093
 
     65    -0.125E-12     0.0000070700        7.4024641980       0.34  <-- CONV
        O_D=      0.0000000 O_OD=      0.0106689 O_TOT=      7.4024642 <-- SPRD
 Delta: O_D= -0.3617800E-13 O_OD= -0.8954990E-13 O_TOT= -0.1252332E-12 <-- DLTA
 ------------------------------------------------------------------------------
 Cycle:     66
  WF centre and spread    1  (  0.000001,  3.691167,  0.000000 )     2.46748697
  WF centre and spread    2  ( -3.691169, -0.000000,  0.000000 )     2.46748698
  WF centre and spread    3  (  0.000001, -0.000000, -3.691167 )     2.46748697
  Sum of centres and spreads ( -3.691166,  3.691167, -3.691167 )     7.40246093
 
     66    -0.252E-12     0.0000070675        7.4024641980       0.35  <-- CONV
        O_D=      0.0000000 O_OD=      0.0106689 O_TOT=      7.4024642 <-- SPRD
 Delta: O_D= -0.7218647E-13 O_OD= -0.1790009E-12 O_TOT= -0.2522427E-12 <-- DLTA
 ------------------------------------------------------------------------------
 Cycle:     67
  WF centre and spread    1  (  0.000001,  3.691167,  0.000000 )     2.46748697
  WF centre and spread    2  ( -3.691169, -0.000000,  0.000000 )     2.46748698
  WF centre and spread    3  (  0.000001, -0.000000, -3.691167 )     2.46748697
  Sum of centres and spreads ( -3.691166,  3.691167, -3.691167 )     7.40246093
 
     67    -0.376E-12     0.0000070626        7.4024641980       0.35  <-- CONV
        O_D=      0.0000000 O_OD=      0.0106689 O_TOT=      7.4024642 <-- SPRD
 Delta: O_D= -0.1078326E-12 O_OD= -0.2681431E-12 O_TOT= -0.3756995E-12 <-- DLTA
 ------------------------------------------------------------------------------
 Cycle:     68
  WF centre and spread    1  (  0.000001,  3.691167,  0.000000 )     2.46748697
  WF centre and spread    2  ( -3.691169, -0.000000,  0.000000 )     2.46748698
  WF centre and spread    3  (  0.000001, -0.000000, -3.691167 )     2.46748697
  Sum of centres and spreads ( -3.691166,  3.691167, -3.691167 )     7.40246093
 
     68    -0.500E-12     0.0000070552        7.4024641980       0.35  <-- CONV
        O_D=      0.0000000 O_OD=      0.0106689 O_TOT=      7.4024642 <-- SPRD
 Delta: O_D= -0.1429288E-12 O_OD= -0.3569610E-12 O_TOT= -0.5000445E-12 <-- DLTA
 ------------------------------------------------------------------------------
 Cycle:     69
  WF centre and spread    1  (  0.000001,  3.691167,  0.000000 )     2.46748697
  WF centre and spread    2  ( -3.691169, -0.000000,  0.000000 )     2.46748698
  WF centre and spread    3  (  0.000001, -0.000000, -3.691167 )     2.46748697
  Sum of centres and spreads ( -3.691166,  3.691167, -3.691167 )     7.40246093
 
     69    -0.623E-12     0.0000070454        7.4024641980       0.36  <-- CONV
        O_D=      0.0000000 O_OD=      0.0106689 O_TOT=      7.4024642 <-- SPRD
 Delta: O_D= -0.1772954E-12 O_OD= -0.4451682E-12 O_TOT= -0.6226131E-12 <-- DLTA
 ------------------------------------------------------------------------------
 Cycle:     70
  WF centre and spread    1  (  0.000001,  3.691167,  0.000000 )     2.46748697
  WF centre and spread    2  ( -3.691169, -0.000000,  0.000000 )     2.46748698
  WF centre and spread    3  (  0.000001, -0.000000, -3.691167 )     2.46748697
  Sum of centres and spreads ( -3.691166,  3.691167, -3.691167 )     7.40246093
 
     70    -0.743E-12     0.0000070333        7.4024641980       0.36  <-- CONV
        O_D=      0.0000000 O_OD=      0.0106689 O_TOT=      7.4024642 <-- SPRD
 Delta: O_D= -0.2107633E-12 O_OD= -0.5326954E-12 O_TOT= -0.7434053E-12 <-- DLTA
 ------------------------------------------------------------------------------
 Cycle:     71
  WF centre and spread    1  (  0.000001,  3.691167,  0.000000 )     2.46748697
  WF centre and spread    2  ( -3.691169, -0.000000,  0.000000 )     2.46748698
  WF centre and spread    3  (  0.000001, -0.000000, -3.691167 )     2.46748697
  Sum of centres and spreads ( -3.691166,  3.691167, -3.691167 )     7.40246093
 
     71    -0.123E-12     0.0000070190        7.4024641980       0.36  <-- CONV
        O_D=      0.0000000 O_OD=      0.0106689 O_TOT=      7.4024642 <-- SPRD
 Delta: O_D= -0.3471428E-13 O_OD= -0.8919601E-13 O_TOT= -0.1234568E-12 <-- DLTA
 ------------------------------------------------------------------------------
 Cycle:     72
  WF centre and spread    1  (  0.000001,  3.691167,  0.000000 )     2.46748697
  WF centre and spread    2  ( -3.691169, -0.000000,  0.000000 )     2.46748698
  WF centre and spread    3  (  0.000001, -0.000000, -3.691167 )     2.46748697
  Sum of centres and spreads ( -3.691166,  3.691167, -3.691167 )     7.40246093
 
     72    -0.248E-12     0.0000070167        7.4024641980       0.37  <-- CONV
        O_D=      0.0000000 O_OD=      0.0106689 O_TOT=      7.4024642 <-- SPRD
 Delta: O_D= -0.6927438E-13 O_OD= -0.1782827E-12 O_TOT= -0.2478018E-12 <-- DLTA
 ------------------------------------------------------------------------------
 Cycle:     73
  WF centre and spread    1  (  0.000001,  3.691167,  0.000000 )     2.46748697
  WF centre and spread    2  ( -3.691169, -0.000000,  0.000000 )     2.46748698
  WF centre and spread    3  (  0.000001, -0.000000, -3.691167 )     2.46748697
  Sum of centres and spreads ( -3.691166,  3.691167, -3.691167 )     7.40246093
 
     73    -0.371E-12     0.0000070120        7.4024641980       0.37  <-- CONV
        O_D=      0.0000000 O_OD=      0.0106689 O_TOT=      7.4024642 <-- SPRD
 Delta: O_D= -0.1035051E-12 O_OD= -0.2671769E-12 O_TOT= -0.3712586E-12 <-- DLTA
 ------------------------------------------------------------------------------
 Cycle:     74
  WF centre and spread    1  (  0.000001,  3.691167,  0.000000 )     2.46748697
  WF centre and spread    2  ( -3.691169, -0.000000,  0.000000 )     2.46748698
  WF centre and spread    3  (  0.000001, -0.000000, -3.691167 )     2.46748697
  Sum of centres and spreads ( -3.691166,  3.691167, -3.691167 )     7.40246093
 
     74    -0.492E-12     0.0000070051        7.4024641980       0.38  <-- CONV
        O_D=      0.0000000 O_OD=      0.0106689 O_TOT=      7.4024642 <-- SPRD
 Delta: O_D= -0.1372360E-12 O_OD= -0.3556114E-12 O_TOT= -0.4920508E-12 <-- DLTA
 ------------------------------------------------------------------------------
 Cycle:     75
  WF centre and spread    1  (  0.000001,  3.691167,  0.000000 )     2.46748697
  WF centre and spread    2  ( -3.691169, -0.000000,  0.000000 )     2.46748698
  WF centre and spread    3  (  0.000001, -0.000000, -3.691167 )     2.46748697
  Sum of centres and spreads ( -3.691166,  3.691167, -3.691167 )     7.40246093
 
     75    -0.614E-12     0.0000069960        7.4024641980       0.38  <-- CONV
        O_D=      0.0000000 O_OD=      0.0106689 O_TOT=      7.4024642 <-- SPRD
 Delta: O_D= -0.1703034E-12 O_OD= -0.4435740E-12 O_TOT= -0.6137313E-12 <-- DLTA
 ------------------------------------------------------------------------------
 Cycle:     76
  WF centre and spread    1  (  0.000001,  3.691167,  0.000000 )     2.46748697
  WF centre and spread    2  ( -3.691169, -0.000000,  0.000000 )     2.46748698
  WF centre and spread    3  (  0.000001, -0.000000, -3.691167 )     2.46748697
  Sum of centres and spreads ( -3.691166,  3.691167, -3.691167 )     7.40246093
 
     76    -0.734E-12     0.0000069848        7.4024641980       0.38  <-- CONV
        O_D=      0.0000000 O_OD=      0.0106689 O_TOT=      7.4024642 <-- SPRD
 Delta: O_D= -0.2025533E-12 O_OD= -0.5308896E-12 O_TOT= -0.7336354E-12 <-- DLTA
 ------------------------------------------------------------------------------
 Cycle:     77
  WF centre and spread    1  (  0.000001,  3.691167,  0.000000 )     2.46748697
  WF centre and spread    2  ( -3.691169, -0.000000,  0.000000 )     2.46748698
  WF centre and spread    3  (  0.000001, -0.000000, -3.691167 )     2.46748697
  Sum of centres and spreads ( -3.691166,  3.691167, -3.691167 )     7.40246093
 
     77    -0.122E-12     0.0000069714        7.4024641980       0.39  <-- CONV
        O_D=      0.0000000 O_OD=      0.0106689 O_TOT=      7.4024642 <-- SPRD
 Delta: O_D= -0.3338042E-13 O_OD= -0.8884039E-13 O_TOT= -0.1216804E-12 <-- DLTA
 ------------------------------------------------------------------------------
 Cycle:     78
  WF centre and spread    1  (  0.000001,  3.691167,  0.000000 )     2.46748697
  WF centre and spread    2  ( -3.691169, -0.000000,  0.000000 )     2.46748698
  WF centre and spread    3  (  0.000001, -0.000000, -3.691167 )     2.46748697
  Sum of centres and spreads ( -3.691166,  3.691167, -3.691167 )     7.40246093
 
     78    -0.244E-12     0.0000069693        7.4024641980       0.39  <-- CONV
        O_D=      0.0000000 O_OD=      0.0106689 O_TOT=      7.4024642 <-- SPRD
 Delta: O_D= -0.6662051E-13 O_OD= -0.1776253E-12 O_TOT= -0.2442491E-12 <-- DLTA
 ------------------------------------------------------------------------------
 Cycle:     79
  WF centre and spread    1  (  0.000001,  3.691167,  0.000000 )     2.46748697
  WF centre and spread    2  ( -3.691169, -0.000000,  0.000000 )     2.46748698
  WF centre and spread    3  (  0.000001, -0.000000, -3.691167 )     2.46748697
  Sum of centres and spreads ( -3.691166,  3.691167, -3.691167 )     7.40246093
 
     79    -0.367E-12     0.0000069649        7.4024641980       0.40  <-- CONV
        O_D=      0.0000000 O_OD=      0.0106689 O_TOT=      7.4024642 <-- SPRD
 Delta: O_D= -0.9956096E-13 O_OD= -0.2661638E-12 O_TOT= -0.3668177E-12 <-- DLTA
 ------------------------------------------------------------------------------
 Cycle:     80
  WF centre and spread    1  (  0.000001,  3.691167,  0.000000 )     2.46748697
  WF centre and spread    2  ( -3.691169, -0.000000,  0.000000 )     2.46748698
  WF centre and spread    3  (  0.000001, -0.000000, -3.691167 )     2.46748697
  Sum of centres and spreads ( -3.691166,  3.691167, -3.691167 )     7.40246093
 
     80    -0.486E-12     0.0000069585        7.4024641980       0.40  <-- CONV
        O_D=      0.0000000 O_OD=      0.0106689 O_TOT=      7.4024642 <-- SPRD
 Delta: O_D= -0.1320465E-12 O_OD= -0.3543502E-12 O_TOT= -0.4858336E-12 <-- DLTA
 ------------------------------------------------------------------------------
 Cycle:     81
  WF centre and spread    1  (  0.000001,  3.691167,  0.000000 )     2.46748697
  WF centre and spread    2  ( -3.691169, -0.000000,  0.000000 )     2.46748698
  WF centre and spread    3  (  0.000001, -0.000000, -3.691167 )     2.46748697
  Sum of centres and spreads ( -3.691166,  3.691167, -3.691167 )     7.40246093
 
     81    -0.606E-12     0.0000069500        7.4024641980       0.40  <-- CONV
        O_D=      0.0000000 O_OD=      0.0106689 O_TOT=      7.4024642 <-- SPRD
 Delta: O_D= -0.1639283E-12 O_OD= -0.4419902E-12 O_TOT= -0.6057377E-12 <-- DLTA
 ------------------------------------------------------------------------------
 Cycle:     82
  WF centre and spread    1  (  0.000001,  3.691167,  0.000000 )     2.46748697
  WF centre and spread    2  ( -3.691169, -0.000000,  0.000000 )     2.46748698
  WF centre and spread    3  (  0.000001, -0.000000, -3.691167 )     2.46748697
  Sum of centres and spreads ( -3.691166,  3.691167, -3.691167 )     7.40246093
 
     82    -0.724E-12     0.0000069395        7.4024641980       0.41  <-- CONV
        O_D=      0.0000000 O_OD=      0.0106689 O_TOT=      7.4024642 <-- SPRD
 Delta: O_D= -0.1950655E-12 O_OD= -0.5290456E-12 O_TOT= -0.7238654E-12 <-- DLTA
 ------------------------------------------------------------------------------
 Cycle:     83
  WF centre and spread    1  (  0.000001,  3.691167,  0.000000 )     2.46748697
  WF centre and spread    2  ( -3.691169, -0.000000,  0.000000 )     2.46748698
  WF centre and spread    3  (  0.000001, -0.000000, -3.691167 )     2.46748697
  Sum of centres and spreads ( -3.691166,  3.691167, -3.691167 )     7.40246093
 
     83    -0.122E-12     0.0000069270        7.4024641980       0.41  <-- CONV
        O_D=      0.0000000 O_OD=      0.0106689 O_TOT=      7.4024642 <-- SPRD
 Delta: O_D= -0.3216436E-13 O_OD= -0.8855069E-13 O_TOT= -0.1216804E-12 <-- DLTA
 ------------------------------------------------------------------------------
 Cycle:     84
  WF centre and spread    1  (  0.000001,  3.691167,  0.000000 )     2.46748697
  WF centre and spread    2  ( -3.691169, -0.000000,  0.000000 )     2.46748698
  WF centre and spread    3  (  0.000001, -0.000000, -3.691167 )     2.46748697
  Sum of centres and spreads ( -3.691166,  3.691167, -3.691167 )     7.40246093
 
     84    -0.241E-12     0.0000069250        7.4024641980       0.42  <-- CONV
        O_D=      0.0000000 O_OD=      0.0106689 O_TOT=      7.4024642 <-- SPRD
 Delta: O_D= -0.6420089E-13 O_OD= -0.1769505E-12 O_TOT= -0.2406964E-12 <-- DLTA
 ------------------------------------------------------------------------------
 Cycle:     85
  WF centre and spread    1  (  0.000001,  3.691167,  0.000000 )     2.46748697
  WF centre and spread    2  ( -3.691169, -0.000000,  0.000000 )     2.46748698
  WF centre and spread    3  (  0.000001, -0.000000, -3.691167 )     2.46748697
  Sum of centres and spreads ( -3.691166,  3.691167, -3.691167 )     7.40246093
 
     85    -0.361E-12     0.0000069210        7.4024641980       0.42  <-- CONV
        O_D=      0.0000000 O_OD=      0.0106689 O_TOT=      7.4024642 <-- SPRD
 Delta: O_D= -0.9596455E-13 O_OD= -0.2651664E-12 O_TOT= -0.3606004E-12 <-- DLTA
 ------------------------------------------------------------------------------
 Cycle:     86
  WF centre and spread    1  (  0.000001,  3.691167,  0.000000 )     2.46748697
  WF centre and spread    2  ( -3.691169, -0.000000,  0.000000 )     2.46748698
  WF centre and spread    3  (  0.000001, -0.000000, -3.691167 )     2.46748697
  Sum of centres and spreads ( -3.691166,  3.691167, -3.691167 )     7.40246093
 
     86    -0.481E-12     0.0000069150        7.4024641980       0.42  <-- CONV
        O_D=      0.0000000 O_OD=      0.0106689 O_TOT=      7.4024642 <-- SPRD
 Delta: O_D= -0.1273139E-12 O_OD= -0.3530561E-12 O_TOT= -0.4805045E-12 <-- DLTA
 ------------------------------------------------------------------------------
 Cycle:     87
  WF centre and spread    1  (  0.000001,  3.691167,  0.000000 )     2.46748697
  WF centre and spread    2  ( -3.691169, -0.000000,  0.000000 )     2.46748698
  WF centre and spread    3  (  0.000001, -0.000000, -3.691167 )     2.46748697
  Sum of centres and spreads ( -3.691166,  3.691167, -3.691167 )     7.40246093
 
     87    -0.599E-12     0.0000069070        7.4024641980       0.43  <-- CONV
        O_D=      0.0000000 O_OD=      0.0106689 O_TOT=      7.4024642 <-- SPRD
 Delta: O_D= -0.1581131E-12 O_OD= -0.4404272E-12 O_TOT= -0.5986323E-12 <-- DLTA
 ------------------------------------------------------------------------------
 Cycle:     88
  WF centre and spread    1  (  0.000001,  3.691167,  0.000000 )     2.46748697
  WF centre and spread    2  ( -3.691169, -0.000000,  0.000000 )     2.46748698
  WF centre and spread    3  (  0.000001, -0.000000, -3.691167 )     2.46748697
  Sum of centres and spreads ( -3.691166,  3.691167, -3.691167 )     7.40246093
 
     88    -0.716E-12     0.0000068972        7.4024641980       0.43  <-- CONV
        O_D=      0.0000000 O_OD=      0.0106689 O_TOT=      7.4024642 <-- SPRD
 Delta: O_D= -0.1882337E-12 O_OD= -0.5272536E-12 O_TOT= -0.7158718E-12 <-- DLTA
 ------------------------------------------------------------------------------
 Cycle:     89
  WF centre and spread    1  (  0.000001,  3.691167,  0.000000 )     2.46748697
  WF centre and spread    2  ( -3.691169, -0.000000,  0.000000 )     2.46748698
  WF centre and spread    3  (  0.000001, -0.000000, -3.691167 )     2.46748697
  Sum of centres and spreads ( -3.691166,  3.691167, -3.691167 )     7.40246093
 
     89    -0.119E-12     0.0000068855        7.4024641980       0.44  <-- CONV
        O_D=      0.0000000 O_OD=      0.0106689 O_TOT=      7.4024642 <-- SPRD
 Delta: O_D= -0.3105517E-13 O_OD= -0.8816038E-13 O_TOT= -0.1190159E-12 <-- DLTA
 ------------------------------------------------------------------------------
 Cycle:     90
  WF centre and spread    1  (  0.000001,  3.691167,  0.000000 )     2.46748697
  WF centre and spread    2  ( -3.691169, -0.000000,  0.000000 )     2.46748698
  WF centre and spread    3  (  0.000001, -0.000000, -3.691167 )     2.46748697
  Sum of centres and spreads ( -3.691166,  3.691167, -3.691167 )     7.40246093
 
     90    -0.238E-12     0.0000068836        7.4024641980       0.44  <-- CONV
        O_D=      0.0000000 O_OD=      0.0106689 O_TOT=      7.4024642 <-- SPRD
 Delta: O_D= -0.6199379E-13 O_OD= -0.1763017E-12 O_TOT= -0.2380318E-12 <-- DLTA
 ------------------------------------------------------------------------------
 Cycle:     91
  WF centre and spread    1  (  0.000001,  3.691167,  0.000000 )     2.46748697
  WF centre and spread    2  ( -3.691169, -0.000000,  0.000000 )     2.46748698
  WF centre and spread    3  (  0.000001, -0.000000, -3.691167 )     2.46748697
  Sum of centres and spreads ( -3.691166,  3.691167, -3.691167 )     7.40246093
 
     91    -0.357E-12     0.0000068799        7.4024641980       0.44  <-- CONV
        O_D=      0.0000000 O_OD=      0.0106689 O_TOT=      7.4024642 <-- SPRD
 Delta: O_D= -0.9268366E-13 O_OD= -0.2641828E-12 O_TOT= -0.3570477E-12 <-- DLTA
 ------------------------------------------------------------------------------
 Cycle:     92
  WF centre and spread    1  (  0.000001,  3.691167,  0.000000 )     2.46748697
  WF centre and spread    2  ( -3.691169, -0.000000,  0.000000 )     2.46748698
  WF centre and spread    3  (  0.000001, -0.000000, -3.691167 )     2.46748697
  Sum of centres and spreads ( -3.691166,  3.691167, -3.691167 )     7.40246093
 
     92    -0.475E-12     0.0000068742        7.4024641980       0.45  <-- CONV
        O_D=      0.0000000 O_OD=      0.0106689 O_TOT=      7.4024642 <-- SPRD
 Delta: O_D= -0.1229958E-12 O_OD= -0.3517932E-12 O_TOT= -0.4751755E-12 <-- DLTA
 ------------------------------------------------------------------------------
 Cycle:     93
  WF centre and spread    1  (  0.000001,  3.691167,  0.000000 )     2.46748697
  WF centre and spread    2  ( -3.691169, -0.000000,  0.000000 )     2.46748698
  WF centre and spread    3  (  0.000001, -0.000000, -3.691167 )     2.46748697
  Sum of centres and spreads ( -3.691166,  3.691167, -3.691167 )     7.40246093
 
     93    -0.592E-12     0.0000068668        7.4024641980       0.45  <-- CONV
        O_D=      0.0000000 O_OD=      0.0106689 O_TOT=      7.4024642 <-- SPRD
 Delta: O_D= -0.1528061E-12 O_OD= -0.4389059E-12 O_TOT= -0.5915268E-12 <-- DLTA
 ------------------------------------------------------------------------------
 Cycle:     94
  WF centre and spread    1  (  0.000001,  3.691167,  0.000000 )     2.46748697
  WF centre and spread    2  ( -3.691169, -0.000000,  0.000000 )     2.46748698
  WF centre and spread    3  (  0.000001, -0.000000, -3.691167 )     2.46748697
  Sum of centres and spreads ( -3.691166,  3.691167, -3.691167 )     7.40246093
 
     94    -0.708E-12     0.0000068576        7.4024641980       0.46  <-- CONV
        O_D=      0.0000000 O_OD=      0.0106689 O_TOT=      7.4024642 <-- SPRD
 Delta: O_D= -0.1819972E-12 O_OD= -0.5254026E-12 O_TOT= -0.7078782E-12 <-- DLTA
 ------------------------------------------------------------------------------
 Cycle:     95
  WF centre and spread    1  (  0.000001,  3.691167,  0.000000 )     2.46748697
  WF centre and spread    2  ( -3.691169, -0.000000,  0.000000 )     2.46748698
  WF centre and spread    3  (  0.000001, -0.000000, -3.691167 )     2.46748697
  Sum of centres and spreads ( -3.691166,  3.691167, -3.691167 )     7.40246093
 
     95    -0.117E-12     0.0000068467        7.4024641980       0.46  <-- CONV
        O_D=      0.0000000 O_OD=      0.0106689 O_TOT=      7.4024642 <-- SPRD
 Delta: O_D= -0.3004292E-13 O_OD= -0.8786027E-13 O_TOT= -0.1172396E-12 <-- DLTA
 ------------------------------------------------------------------------------
 Cycle:     96
  WF centre and spread    1  (  0.000001,  3.691167,  0.000000 )     2.46748697
  WF centre and spread    2  ( -3.691169, -0.000000,  0.000000 )     2.46748698
  WF centre and spread    3  (  0.000001, -0.000000, -3.691167 )     2.46748697
  Sum of centres and spreads ( -3.691166,  3.691167, -3.691167 )     7.40246093
 
     96    -0.235E-12     0.0000068449        7.4024641980       0.46  <-- CONV
        O_D=      0.0000000 O_OD=      0.0106689 O_TOT=      7.4024642 <-- SPRD
 Delta: O_D= -0.5997948E-13 O_OD= -0.1756754E-12 O_TOT= -0.2353673E-12 <-- DLTA
 ------------------------------------------------------------------------------
 Cycle:     97
  WF centre and spread    1  (  0.000001,  3.691167,  0.000000 )     2.46748697
  WF centre and spread    2  ( -3.691169, -0.000000,  0.000000 )     2.46748698
  WF centre and spread    3  (  0.000001, -0.000000, -3.691167 )     2.46748697
  Sum of centres and spreads ( -3.691166,  3.691167, -3.691167 )     7.40246093
 
[...]
  Sum of centres and spreads ( -3.691166,  3.691167, -3.691167 )     7.40246093
 
    473    -0.879E-13     0.0000059028        7.4024641979       1.97  <-- CONV
        O_D=      0.0000000 O_OD=      0.0106689 O_TOT=      7.4024642 <-- SPRD
 Delta: O_D= -0.1687170E-13 O_OD= -0.7079233E-13 O_TOT= -0.8792966E-13 <-- DLTA
 ------------------------------------------------------------------------------
 Cycle:    474
  WF centre and spread    1  (  0.000001,  3.691167,  0.000000 )     2.46748697
  WF centre and spread    2  ( -3.691169, -0.000000, -0.000000 )     2.46748698
  WF centre and spread    3  (  0.000001, -0.000000, -3.691167 )     2.46748697
  Sum of centres and spreads ( -3.691166,  3.691167, -3.691167 )     7.40246093
 
    474    -0.175E-12     0.0000059023        7.4024641979       1.98  <-- CONV
        O_D=      0.0000000 O_OD=      0.0106689 O_TOT=      7.4024642 <-- SPRD
 Delta: O_D= -0.3373510E-13 O_OD= -0.1415135E-12 O_TOT= -0.1749711E-12 <-- DLTA
 ------------------------------------------------------------------------------
 Cycle:    475
  WF centre and spread    1  (  0.000001,  3.691167,  0.000000 )     2.46748697
  WF centre and spread    2  ( -3.691169, -0.000000, -0.000000 )     2.46748698
  WF centre and spread    3  (  0.000001, -0.000000, -3.691167 )     2.46748697
  Sum of centres and spreads ( -3.691166,  3.691167, -3.691167 )     7.40246093
 
    475    -0.263E-12     0.0000059014        7.4024641979       1.98  <-- CONV
        O_D=      0.0000000 O_OD=      0.0106689 O_TOT=      7.4024642 <-- SPRD
 Delta: O_D= -0.5057920E-13 O_OD= -0.2122053E-12 O_TOT= -0.2629008E-12 <-- DLTA
 ------------------------------------------------------------------------------
 Cycle:    476
  WF centre and spread    1  (  0.000001,  3.691167,  0.000000 )     2.46748697
  WF centre and spread    2  ( -3.691169, -0.000000, -0.000000 )     2.46748698
  WF centre and spread    3  (  0.000001, -0.000000, -3.691167 )     2.46748697
  Sum of centres and spreads ( -3.691166,  3.691167, -3.691167 )     7.40246093
 
    476    -0.350E-12     0.0000059000        7.4024641979       1.98  <-- CONV
        O_D=      0.0000000 O_OD=      0.0106689 O_TOT=      7.4024642 <-- SPRD
 Delta: O_D= -0.6739305E-13 O_OD= -0.2826784E-12 O_TOT= -0.3499423E-12 <-- DLTA
 ------------------------------------------------------------------------------
 Cycle:    477
  WF centre and spread    1  (  0.000001,  3.691167,  0.000000 )     2.46748697
  WF centre and spread    2  ( -3.691169, -0.000000, -0.000000 )     2.46748698
  WF centre and spread    3  (  0.000001, -0.000000, -3.691167 )     2.46748697
  Sum of centres and spreads ( -3.691166,  3.691167, -3.691167 )     7.40246093
 
    477    -0.438E-12     0.0000058981        7.4024641979       1.99  <-- CONV
        O_D=      0.0000000 O_OD=      0.0106689 O_TOT=      7.4024642 <-- SPRD
 Delta: O_D= -0.8416571E-13 O_OD= -0.3531082E-12 O_TOT= -0.4378720E-12 <-- DLTA
 ------------------------------------------------------------------------------
 Cycle:    478
  WF centre and spread    1  (  0.000001,  3.691167,  0.000000 )     2.46748697
  WF centre and spread    2  ( -3.691169, -0.000000, -0.000000 )     2.46748698
  WF centre and spread    3  (  0.000001, -0.000000, -3.691167 )     2.46748697
  Sum of centres and spreads ( -3.691166,  3.691167, -3.691167 )     7.40246093
 
    478    -0.524E-12     0.0000058957        7.4024641979       1.99  <-- CONV
        O_D=      0.0000000 O_OD=      0.0106689 O_TOT=      7.4024642 <-- SPRD
 Delta: O_D= -0.1008863E-12 O_OD= -0.4232292E-12 O_TOT= -0.5240253E-12 <-- DLTA
 ------------------------------------------------------------------------------
 Cycle:    479
  WF centre and spread    1  (  0.000001,  3.691167,  0.000000 )     2.46748697
  WF centre and spread    2  ( -3.691169, -0.000000, -0.000000 )     2.46748698
  WF centre and spread    3  (  0.000001, -0.000000, -3.691167 )     2.46748697
  Sum of centres and spreads ( -3.691166,  3.691167, -3.691167 )     7.40246093
 
    479    -0.879E-13     0.0000058929        7.4024641979       1.99  <-- CONV
        O_D=      0.0000000 O_OD=      0.0106689 O_TOT=      7.4024642 <-- SPRD
 Delta: O_D= -0.1681309E-13 O_OD= -0.7057549E-13 O_TOT= -0.8792966E-13 <-- DLTA
 ------------------------------------------------------------------------------
 Cycle:    480
  WF centre and spread    1  (  0.000001,  3.691167,  0.000000 )     2.46748697
  WF centre and spread    2  ( -3.691169, -0.000000, -0.000000 )     2.46748698
  WF centre and spread    3  (  0.000001, -0.000000, -3.691167 )     2.46748697
  Sum of centres and spreads ( -3.691166,  3.691167, -3.691167 )     7.40246093
 
    480    -0.174E-12     0.0000058924        7.4024641979       2.00  <-- CONV
        O_D=      0.0000000 O_OD=      0.0106689 O_TOT=      7.4024642 <-- SPRD
 Delta: O_D= -0.3361793E-13 O_OD= -0.1410105E-12 O_TOT= -0.1740830E-12 <-- DLTA
 ------------------------------------------------------------------------------
 Cycle:    481
  WF centre and spread    1  (  0.000001,  3.691167,  0.000000 )     2.46748697
  WF centre and spread    2  ( -3.691169, -0.000000, -0.000000 )     2.46748698
  WF centre and spread    3  (  0.000001, -0.000000, -3.691167 )     2.46748697
  Sum of centres and spreads ( -3.691166,  3.691167, -3.691167 )     7.40246093
 
    481    -0.262E-12     0.0000058915        7.4024641979       2.00  <-- CONV
        O_D=      0.0000000 O_OD=      0.0106689 O_TOT=      7.4024642 <-- SPRD
 Delta: O_D= -0.5040358E-13 O_OD= -0.2114853E-12 O_TOT= -0.2620126E-12 <-- DLTA
 ------------------------------------------------------------------------------
 Cycle:    482
  WF centre and spread    1  (  0.000001,  3.691167,  0.000000 )     2.46748697
  WF centre and spread    2  ( -3.691169, -0.000000, -0.000000 )     2.46748698
  WF centre and spread    3  (  0.000001, -0.000000, -3.691167 )     2.46748697
  Sum of centres and spreads ( -3.691166,  3.691167, -3.691167 )     7.40246093
 
    482    -0.349E-12     0.0000058901        7.4024641979       2.01  <-- CONV
        O_D=      0.0000000 O_OD=      0.0106689 O_TOT=      7.4024642 <-- SPRD
 Delta: O_D= -0.6715914E-13 O_OD= -0.2817607E-12 O_TOT= -0.3490541E-12 <-- DLTA
 ------------------------------------------------------------------------------
 Cycle:    483
  WF centre and spread    1  (  0.000001,  3.691167,  0.000000 )     2.46748697
  WF centre and spread    2  ( -3.691169, -0.000000, -0.000000 )     2.46748698
  WF centre and spread    3  (  0.000001, -0.000000, -3.691167 )     2.46748697
  Sum of centres and spreads ( -3.691166,  3.691167, -3.691167 )     7.40246093
 
    483    -0.435E-12     0.0000058882        7.4024641979       2.01  <-- CONV
        O_D=      0.0000000 O_OD=      0.0106689 O_TOT=      7.4024642 <-- SPRD
 Delta: O_D= -0.8387375E-13 O_OD= -0.3519407E-12 O_TOT= -0.4352074E-12 <-- DLTA
 ------------------------------------------------------------------------------
 Cycle:    484
  WF centre and spread    1  (  0.000001,  3.691167,  0.000000 )     2.46748697
  WF centre and spread    2  ( -3.691169, -0.000000, -0.000000 )     2.46748698
  WF centre and spread    3  (  0.000001, -0.000000, -3.691167 )     2.46748697
  Sum of centres and spreads ( -3.691166,  3.691167, -3.691167 )     7.40246093
 
    484    -0.522E-12     0.0000058858        7.4024641979       2.01  <-- CONV
        O_D=      0.0000000 O_OD=      0.0106689 O_TOT=      7.4024642 <-- SPRD
 Delta: O_D= -0.1005366E-12 O_OD= -0.4218015E-12 O_TOT= -0.5222489E-12 <-- DLTA
 ------------------------------------------------------------------------------
 Cycle:    485
  WF centre and spread    1  (  0.000001,  3.691167,  0.000000 )     2.46748697
  WF centre and spread    2  ( -3.691169, -0.000000, -0.000000 )     2.46748698
  WF centre and spread    3  (  0.000001, -0.000000, -3.691167 )     2.46748697
  Sum of centres and spreads ( -3.691166,  3.691167, -3.691167 )     7.40246093
 
    485    -0.870E-13     0.0000058830        7.4024641979       2.02  <-- CONV
        O_D=      0.0000000 O_OD=      0.0106689 O_TOT=      7.4024642 <-- SPRD
 Delta: O_D= -0.1675486E-13 O_OD= -0.7030661E-13 O_TOT= -0.8704149E-13 <-- DLTA
 ------------------------------------------------------------------------------
 Cycle:    486
  WF centre and spread    1  (  0.000001,  3.691167,  0.000000 )     2.46748697
  WF centre and spread    2  ( -3.691169, -0.000000, -0.000000 )     2.46748698
  WF centre and spread    3  (  0.000001, -0.000000, -3.691167 )     2.46748697
  Sum of centres and spreads ( -3.691166,  3.691167, -3.691167 )     7.40246093
 
    486    -0.175E-12     0.0000058825        7.4024641979       2.02  <-- CONV
        O_D=      0.0000000 O_OD=      0.0106689 O_TOT=      7.4024642 <-- SPRD
 Delta: O_D= -0.3350152E-13 O_OD= -0.1405993E-12 O_TOT= -0.1749711E-12 <-- DLTA
 ------------------------------------------------------------------------------
 Cycle:    487
  WF centre and spread    1  (  0.000001,  3.691167,  0.000000 )     2.46748697
  WF centre and spread    2  ( -3.691169, -0.000000, -0.000000 )     2.46748698
  WF centre and spread    3  (  0.000001, -0.000000, -3.691167 )     2.46748697
  Sum of centres and spreads ( -3.691166,  3.691167, -3.691167 )     7.40246093
 
    487    -0.261E-12     0.0000058816        7.4024641979       2.03  <-- CONV
        O_D=      0.0000000 O_OD=      0.0106689 O_TOT=      7.4024642 <-- SPRD
 Delta: O_D= -0.5022909E-13 O_OD= -0.2107741E-12 O_TOT= -0.2611245E-12 <-- DLTA
 ------------------------------------------------------------------------------
 Cycle:    488
  WF centre and spread    1  (  0.000001,  3.691167,  0.000000 )     2.46748697
  WF centre and spread    2  ( -3.691169, -0.000000, -0.000000 )     2.46748698
  WF centre and spread    3  (  0.000001, -0.000000, -3.691167 )     2.46748697
  Sum of centres and spreads ( -3.691166,  3.691167, -3.691167 )     7.40246093
 
    488    -0.347E-12     0.0000058802        7.4024641979       2.03  <-- CONV
        O_D=      0.0000000 O_OD=      0.0106689 O_TOT=      7.4024642 <-- SPRD
 Delta: O_D= -0.6692674E-13 O_OD= -0.2808413E-12 O_TOT= -0.3472778E-12 <-- DLTA
 ------------------------------------------------------------------------------
 Cycle:    489
  WF centre and spread    1  (  0.000001,  3.691167,  0.000000 )     2.46748697
  WF centre and spread    2  ( -3.691169, -0.000000, -0.000000 )     2.46748698
  WF centre and spread    3  (  0.000001, -0.000000, -3.691167 )     2.46748697
  Sum of centres and spreads ( -3.691166,  3.691167, -3.691167 )     7.40246093
 
    489    -0.434E-12     0.0000058783        7.4024641979       2.03  <-- CONV
        O_D=      0.0000000 O_OD=      0.0106689 O_TOT=      7.4024642 <-- SPRD
 Delta: O_D= -0.8358366E-13 O_OD= -0.3507368E-12 O_TOT= -0.4343192E-12 <-- DLTA
 ------------------------------------------------------------------------------
 Cycle:    490
  WF centre and spread    1  (  0.000001,  3.691167,  0.000000 )     2.46748697
  WF centre and spread    2  ( -3.691169, -0.000000, -0.000000 )     2.46748698
  WF centre and spread    3  (  0.000001, -0.000000, -3.691167 )     2.46748697
  Sum of centres and spreads ( -3.691166,  3.691167, -3.691167 )     7.40246093
 
    490    -0.520E-12     0.0000058760        7.4024641979       2.04  <-- CONV
        O_D=      0.0000000 O_OD=      0.0106689 O_TOT=      7.4024642 <-- SPRD
 Delta: O_D= -0.1001891E-12 O_OD= -0.4204536E-12 O_TOT= -0.5204726E-12 <-- DLTA
 ------------------------------------------------------------------------------
 Cycle:    491
  WF centre and spread    1  (  0.000001,  3.691167,  0.000000 )     2.46748697
  WF centre and spread    2  ( -3.691169, -0.000000, -0.000000 )     2.46748698
  WF centre and spread    3  (  0.000001, -0.000000, -3.691167 )     2.46748697
  Sum of centres and spreads ( -3.691166,  3.691167, -3.691167 )     7.40246093
 
    491    -0.870E-13     0.0000058731        7.4024641979       2.04  <-- CONV
        O_D=      0.0000000 O_OD=      0.0106689 O_TOT=      7.4024642 <-- SPRD
 Delta: O_D= -0.1669700E-13 O_OD= -0.7002905E-13 O_TOT= -0.8704149E-13 <-- DLTA
 ------------------------------------------------------------------------------
 Cycle:    492
  WF centre and spread    1  (  0.000001,  3.691167,  0.000000 )     2.46748697
  WF centre and spread    2  ( -3.691169, -0.000000, -0.000000 )     2.46748698
  WF centre and spread    3  (  0.000001, -0.000000, -3.691167 )     2.46748697
  Sum of centres and spreads ( -3.691166,  3.691167, -3.691167 )     7.40246093
 
    492    -0.173E-12     0.0000058727        7.4024641979       2.05  <-- CONV
        O_D=      0.0000000 O_OD=      0.0106689 O_TOT=      7.4024642 <-- SPRD
 Delta: O_D= -0.3338584E-13 O_OD= -0.1401466E-12 O_TOT= -0.1731948E-12 <-- DLTA
 ------------------------------------------------------------------------------
 Cycle:    493
  WF centre and spread    1  (  0.000001,  3.691167,  0.000000 )     2.46748697
  WF centre and spread    2  ( -3.691169, -0.000000, -0.000000 )     2.46748698
  WF centre and spread    3  (  0.000001, -0.000000, -3.691167 )     2.46748697
  Sum of centres and spreads ( -3.691166,  3.691167, -3.691167 )     7.40246093
 
    493    -0.261E-12     0.0000058717        7.4024641979       2.05  <-- CONV
        O_D=      0.0000000 O_OD=      0.0106689 O_TOT=      7.4024642 <-- SPRD
 Delta: O_D= -0.5005570E-13 O_OD= -0.2100490E-12 O_TOT= -0.2611245E-12 <-- DLTA
 ------------------------------------------------------------------------------
 Cycle:    494
  WF centre and spread    1  (  0.000001,  3.691167,  0.000000 )     2.46748697
  WF centre and spread    2  ( -3.691169, -0.000000, -0.000000 )     2.46748698
  WF centre and spread    3  (  0.000001, -0.000000, -3.691167 )     2.46748697
  Sum of centres and spreads ( -3.691166,  3.691167, -3.691167 )     7.40246093
 
    494    -0.346E-12     0.0000058703        7.4024641979       2.05  <-- CONV
        O_D=      0.0000000 O_OD=      0.0106689 O_TOT=      7.4024642 <-- SPRD
 Delta: O_D= -0.6669579E-13 O_OD= -0.2798716E-12 O_TOT= -0.3463896E-12 <-- DLTA
 ------------------------------------------------------------------------------
 Cycle:    495
  WF centre and spread    1  (  0.000001,  3.691167,  0.000000 )     2.46748697
  WF centre and spread    2  ( -3.691169, -0.000000, -0.000000 )     2.46748698
  WF centre and spread    3  (  0.000001, -0.000000, -3.691167 )     2.46748697
  Sum of centres and spreads ( -3.691166,  3.691167, -3.691167 )     7.40246093
 
    495    -0.432E-12     0.0000058684        7.4024641979       2.06  <-- CONV
        O_D=      0.0000000 O_OD=      0.0106689 O_TOT=      7.4024642 <-- SPRD
 Delta: O_D= -0.8329536E-13 O_OD= -0.3496058E-12 O_TOT= -0.4316547E-12 <-- DLTA
 ------------------------------------------------------------------------------
 Cycle:    496
  WF centre and spread    1  (  0.000001,  3.691167,  0.000000 )     2.46748697
  WF centre and spread    2  ( -3.691169, -0.000000, -0.000000 )     2.46748698
  WF centre and spread    3  (  0.000001, -0.000000, -3.691167 )     2.46748697
  Sum of centres and spreads ( -3.691166,  3.691167, -3.691167 )     7.40246093
 
    496    -0.520E-12     0.0000058661        7.4024641979       2.06  <-- CONV
        O_D=      0.0000000 O_OD=      0.0106689 O_TOT=      7.4024642 <-- SPRD
 Delta: O_D= -0.9984372E-13 O_OD= -0.4190311E-12 O_TOT= -0.5195844E-12 <-- DLTA
 ------------------------------------------------------------------------------
 Cycle:    497
  WF centre and spread    1  (  0.000001,  3.691167,  0.000000 )     2.46748697
  WF centre and spread    2  ( -3.691169, -0.000000, -0.000000 )     2.46748698
  WF centre and spread    3  (  0.000001, -0.000000, -3.691167 )     2.46748697
  Sum of centres and spreads ( -3.691166,  3.691167, -3.691167 )     7.40246093
 
    497    -0.870E-13     0.0000058633        7.4024641979       2.06  <-- CONV
        O_D=      0.0000000 O_OD=      0.0106689 O_TOT=      7.4024642 <-- SPRD
 Delta: O_D= -0.1663949E-13 O_OD= -0.6984344E-13 O_TOT= -0.8704149E-13 <-- DLTA
 ------------------------------------------------------------------------------
 Cycle:    498
  WF centre and spread    1  (  0.000001,  3.691167,  0.000000 )     2.46748697
  WF centre and spread    2  ( -3.691169, -0.000000, -0.000000 )     2.46748698
  WF centre and spread    3  (  0.000001, -0.000000, -3.691167 )     2.46748697
  Sum of centres and spreads ( -3.691166,  3.691167, -3.691167 )     7.40246093
 
    498    -0.172E-12     0.0000058628        7.4024641979       2.07  <-- CONV
        O_D=      0.0000000 O_OD=      0.0106689 O_TOT=      7.4024642 <-- SPRD
 Delta: O_D= -0.3327086E-13 O_OD= -0.1396470E-12 O_TOT= -0.1723066E-12 <-- DLTA
 ------------------------------------------------------------------------------
 Cycle:    499
  WF centre and spread    1  (  0.000001,  3.691167,  0.000000 )     2.46748697
  WF centre and spread    2  ( -3.691169, -0.000000, -0.000000 )     2.46748698
  WF centre and spread    3  (  0.000001, -0.000000, -3.691167 )     2.46748697
  Sum of centres and spreads ( -3.691166,  3.691167, -3.691167 )     7.40246093
 
    499    -0.259E-12     0.0000058619        7.4024641979       2.07  <-- CONV
        O_D=      0.0000000 O_OD=      0.0106689 O_TOT=      7.4024642 <-- SPRD
 Delta: O_D= -0.4988335E-13 O_OD= -0.2093603E-12 O_TOT= -0.2593481E-12 <-- DLTA
 ------------------------------------------------------------------------------
 Cycle:    500
  WF centre and spread    1  (  0.000001,  3.691167,  0.000000 )     2.46748697
  WF centre and spread    2  ( -3.691169, -0.000000, -0.000000 )     2.46748698
  WF centre and spread    3  (  0.000001, -0.000000, -3.691167 )     2.46748697
  Sum of centres and spreads ( -3.691166,  3.691167, -3.691167 )     7.40246093
 
    500    -0.346E-12     0.0000058605        7.4024641979       2.08  <-- CONV
        O_D=      0.0000000 O_OD=      0.0106689 O_TOT=      7.4024642 <-- SPRD
 Delta: O_D= -0.6646622E-13 O_OD= -0.2790008E-12 O_TOT= -0.3455014E-12 <-- DLTA
 ------------------------------------------------------------------------------

 Writing checkpoint file mp-22903.chk... done

 Final State
  WF centre and spread    1  (  0.000001,  3.691167,  0.000000 )     2.46748697
  WF centre and spread    2  ( -3.691169, -0.000000, -0.000000 )     2.46748698
  WF centre and spread    3  (  0.000001, -0.000000, -3.691167 )     2.46748697
  Sum of centres and spreads ( -3.691166,  3.691167, -3.691167 )     7.40246093
 
         Spreads (Ang^2)       Omega I      =     7.391795332
        ================       Omega D      =     0.000000000
                               Omega OD     =     0.010668866
    Final Spread (Ang^2)       Omega Total  =     7.402464198
 ------------------------------------------------------------------------------
 Time for wannierise            2.068 (sec)

 Writing checkpoint file mp-22903.chk... done

 Time for plotting              0.000 (sec)
 Total Execution Time           3.353 (sec)

 *===========================================================================*
 |                             TIMING INFORMATION                            |
 *===========================================================================*
 |    Tag                                                Ncalls      Time (s)|
 |---------------------------------------------------------------------------|
 |kmesh: get                                        :         1         1.040|
 |overlap: allocate                                 :         1         0.002|
 |overlap: read                                     :         1         0.135|
 |wann: main                                        :         1         2.068|
 |plot: main                                        :         1         0.000|
 *---------------------------------------------------------------------------*
 
 All done: wannier90 exiting
