
     Program PWSCF v.7.1 starts on  3Jan2024 at 14:36:18 

     This program is part of the open-source Quantum ESPRESSO suite
     for quantum simulation of materials; please cite
         "P. Giannozzi et al., J. Phys.:Condens. Matter 21 395502 (2009);
         "P. Giannozzi et al., J. Phys.:Condens. Matter 29 465901 (2017);
         "P. Giannozzi et al., J. Chem. Phys. 152 154105 (2020);
          URL http://www.quantum-espresso.org", 
     in publications or presentations arising from this work. More details at
     http://www.quantum-espresso.org/quote

     Parallel version (MPI), running on     8 processors

     MPI processes distributed on     1 nodes
     122651 MiB available memory on the printing compute node when the environment starts
 
     Reading input from pw_mp-22916_nscf_k3000_E130.in
Warning: card &IONS ignored
Warning: card / ignored
Warning: card &CELL ignored
Warning: card / ignored

     Current dimensions of program PWSCF are:
     Max number of different atomic species (ntypx) = 10
     Max number of k-points (npk) =  40000
     Max angular momentum in pseudopotentials (lmaxx) =  4

     Atomic positions and unit cell read from directory:
     out/mp-22916.save/
     Atomic positions from file used, from input discarded
 
 
     R & G space division:  proc/nbgrp/npool/nimage =       8
     Subspace diagonalization in iterative solution of the eigenvalue problem:
     a serial algorithm will be used

 
     Parallelization info
     --------------------
     sticks:   dense  smooth     PW     G-vecs:    dense   smooth      PW
     Min         279     279     80                 8755     8755    1332
     Max         280     280     82                 8759     8759    1333
     Sum        2233    2233    649                70049    70049   10657
 
     Using Slab Decomposition
 


     bravais-lattice index     =            2
     lattice parameter (alat)  =      11.1930  a.u.
     unit-cell volume          =     350.5745 (a.u.)^3
     number of atoms/cell      =            2
     number of atomic types    =            2
     number of electrons       =        16.00
     number of Kohn-Sham states=           16
     kinetic-energy cutoff     =     130.0000  Ry
     charge density cutoff     =     520.0000  Ry
     Exchange-correlation= PBE
                           (   1   4   3   4   0   0   0)

     celldm(1)=  11.193007  celldm(2)=   0.000000  celldm(3)=   0.000000
     celldm(4)=   0.000000  celldm(5)=   0.000000  celldm(6)=   0.000000

     crystal axes: (cart. coord. in units of alat)
               a(1) = (  -0.500000   0.000000   0.500000 )  
               a(2) = (   0.000000   0.500000   0.500000 )  
               a(3) = (  -0.500000   0.500000   0.000000 )  

     reciprocal axes: (cart. coord. in units 2 pi/alat)
               b(1) = ( -1.000000 -1.000000  1.000000 )  
               b(2) = (  1.000000  1.000000  1.000000 )  
               b(3) = ( -1.000000  1.000000 -1.000000 )  


     PseudoPot. # 1 for Br read from file:
     /usr/scratch4/magr4985/MG/devEb/pseudo/SG15/Br.upf
     MD5 check sum: d26c51d81abb03042b648ee3fecf55db
     Pseudo is Norm-conserving, Zval =  7.0
     Generated using ONCVPSP code by D. R. Hamann
     Using radial grid of  602 points,  6 beta functions with: 
                l(1) =   0
                l(2) =   0
                l(3) =   1
                l(4) =   1
                l(5) =   2
                l(6) =   2

     PseudoPot. # 2 for Na read from file:
     /usr/scratch4/magr4985/MG/devEb/pseudo/SG15/Na.upf
     MD5 check sum: b5675fcfec0094e74c3198b687cdd8c0
     Pseudo is Norm-conserving, Zval =  9.0
     Generated using ONCVPSP code by D. R. Hamann
     Using radial grid of  602 points,  4 beta functions with: 
                l(1) =   0
                l(2) =   0
                l(3) =   1
                l(4) =   1

     atomic species   valence    mass     pseudopotential
        Br             7.00    79.90400     Br( 1.00)
        Na             9.00    22.98980     Na( 1.00)

     48 Sym. Ops., with inversion, found



   Cartesian axes

     site n.     atom                  positions (alat units)
         1           Na  tau(   1) = (   0.0000000   0.0000000   0.0000000  )
         2           Br  tau(   2) = (  -0.5000000   0.5000000   0.5000000  )

     number of k points=    72  Gaussian smearing, width (Ry)=  0.0005
                       cart. coord. in units 2pi/alat
        k(    1) = (   0.0000000   0.0000000   0.0000000), wk =   0.0011574
        k(    2) = (  -0.0833333   0.0833333  -0.0833333), wk =   0.0092593
        k(    3) = (  -0.1666667   0.1666667  -0.1666667), wk =   0.0092593
        k(    4) = (  -0.2500000   0.2500000  -0.2500000), wk =   0.0092593
        k(    5) = (  -0.3333333   0.3333333  -0.3333333), wk =   0.0092593
        k(    6) = (  -0.4166667   0.4166667  -0.4166667), wk =   0.0092593
        k(    7) = (   0.5000000  -0.5000000   0.5000000), wk =   0.0046296
        k(    8) = (   0.0000000   0.1666667   0.0000000), wk =   0.0069444
        k(    9) = (  -0.0833333   0.2500000  -0.0833333), wk =   0.0277778
        k(   10) = (  -0.1666667   0.3333333  -0.1666667), wk =   0.0277778
        k(   11) = (  -0.2500000   0.4166667  -0.2500000), wk =   0.0277778
        k(   12) = (  -0.3333333   0.5000000  -0.3333333), wk =   0.0277778
        k(   13) = (   0.5833333  -0.4166667   0.5833333), wk =   0.0277778
        k(   14) = (   0.5000000  -0.3333333   0.5000000), wk =   0.0277778
        k(   15) = (   0.4166667  -0.2500000   0.4166667), wk =   0.0277778
        k(   16) = (   0.3333333  -0.1666667   0.3333333), wk =   0.0277778
        k(   17) = (   0.2500000  -0.0833333   0.2500000), wk =   0.0277778
        k(   18) = (   0.1666667  -0.0000000   0.1666667), wk =   0.0138889
        k(   19) = (   0.0000000   0.3333333   0.0000000), wk =   0.0069444
        k(   20) = (  -0.0833333   0.4166667  -0.0833333), wk =   0.0277778
        k(   21) = (  -0.1666667   0.5000000  -0.1666667), wk =   0.0277778
        k(   22) = (  -0.2500000   0.5833333  -0.2500000), wk =   0.0277778
        k(   23) = (   0.6666667  -0.3333333   0.6666667), wk =   0.0277778
        k(   24) = (   0.5833333  -0.2500000   0.5833333), wk =   0.0277778
        k(   25) = (   0.5000000  -0.1666667   0.5000000), wk =   0.0277778
        k(   26) = (   0.4166667  -0.0833333   0.4166667), wk =   0.0277778
        k(   27) = (   0.3333333   0.0000000   0.3333333), wk =   0.0138889
        k(   28) = (   0.0000000   0.5000000   0.0000000), wk =   0.0069444
        k(   29) = (  -0.0833333   0.5833333  -0.0833333), wk =   0.0277778
        k(   30) = (  -0.1666667   0.6666667  -0.1666667), wk =   0.0277778
        k(   31) = (   0.7500000  -0.2500000   0.7500000), wk =   0.0277778
        k(   32) = (   0.6666667  -0.1666667   0.6666667), wk =   0.0277778
        k(   33) = (   0.5833333  -0.0833333   0.5833333), wk =   0.0277778
        k(   34) = (   0.5000000   0.0000000   0.5000000), wk =   0.0138889
        k(   35) = (   0.0000000   0.6666667   0.0000000), wk =   0.0069444
        k(   36) = (  -0.0833333   0.7500000  -0.0833333), wk =   0.0277778
        k(   37) = (   0.8333333  -0.1666667   0.8333333), wk =   0.0277778
        k(   38) = (   0.7500000  -0.0833333   0.7500000), wk =   0.0277778
        k(   39) = (   0.6666667  -0.0000000   0.6666667), wk =   0.0138889
        k(   40) = (   0.0000000   0.8333333   0.0000000), wk =   0.0069444
        k(   41) = (   0.9166667  -0.0833333   0.9166667), wk =   0.0277778
        k(   42) = (   0.8333333   0.0000000   0.8333333), wk =   0.0138889
        k(   43) = (   0.0000000  -1.0000000   0.0000000), wk =   0.0034722
        k(   44) = (  -0.1666667   0.3333333   0.0000000), wk =   0.0277778
        k(   45) = (  -0.2500000   0.4166667  -0.0833333), wk =   0.0555556
        k(   46) = (  -0.3333333   0.5000000  -0.1666667), wk =   0.0555556
        k(   47) = (   0.5833333  -0.4166667   0.7500000), wk =   0.0555556
        k(   48) = (   0.5000000  -0.3333333   0.6666667), wk =   0.0277778
        k(   49) = (  -0.1666667   0.5000000   0.0000000), wk =   0.0277778
        k(   50) = (  -0.2500000   0.5833333  -0.0833333), wk =   0.0555556
        k(   51) = (   0.6666667  -0.3333333   0.8333333), wk =   0.0555556
        k(   52) = (   0.5833333  -0.2500000   0.7500000), wk =   0.0555556
        k(   53) = (   0.5000000  -0.1666667   0.6666667), wk =   0.0555556
        k(   54) = (   0.4166667  -0.0833333   0.5833333), wk =   0.0555556
        k(   55) = (   0.3333333   0.0000000   0.5000000), wk =   0.0277778
        k(   56) = (  -0.1666667   0.6666667   0.0000000), wk =   0.0277778
        k(   57) = (   0.7500000  -0.2500000   0.9166667), wk =   0.0555556
        k(   58) = (   0.6666667  -0.1666667   0.8333333), wk =   0.0555556
        k(   59) = (   0.5833333  -0.0833333   0.7500000), wk =   0.0555556
        k(   60) = (   0.5000000   0.0000000   0.6666667), wk =   0.0277778
        k(   61) = (   0.8333333  -0.1666667   1.0000000), wk =   0.0277778
        k(   62) = (   0.7500000  -0.0833333   0.9166667), wk =   0.0555556
        k(   63) = (   0.6666667  -0.0000000   0.8333333), wk =   0.0277778
        k(   64) = (  -0.1666667  -1.0000000  -0.0000000), wk =   0.0138889
        k(   65) = (   0.6666667  -0.3333333   1.0000000), wk =   0.0277778
        k(   66) = (   0.5833333  -0.2500000   0.9166667), wk =   0.0555556
        k(   67) = (   0.5000000  -0.1666667   0.8333333), wk =   0.0277778
        k(   68) = (   0.6666667  -0.1666667   1.0000000), wk =   0.0277778
        k(   69) = (   0.5833333  -0.0833333   0.9166667), wk =   0.0555556
        k(   70) = (   0.5000000   0.0000000   0.8333333), wk =   0.0277778
        k(   71) = (  -0.3333333  -1.0000000   0.0000000), wk =   0.0138889
        k(   72) = (  -0.5000000  -1.0000000   0.0000000), wk =   0.0069444

     Dense  grid:    70049 G-vectors     FFT dimensions: (  60,  60,  60)

     Estimated max dynamical RAM per process >      28.15 MB

     Estimated total dynamical RAM >     225.17 MB

     The potential is recalculated from file :
     out/mp-22916.save/charge-density

     Starting wfcs are random

     Band Structure Calculation
     Davidson diagonalization with overlap

     ethr =  5.00E-06,  avg # of iterations = 29.7

     total cpu time spent up to now is       17.8 secs

     End of band structure calculation

          k = 0.0000 0.0000 0.0000 (  8801 PWs)   bands (ev):

   -47.8988 -19.8252 -19.8252 -19.8252 -11.1118   1.7466   1.7466   1.7466
     5.9528  11.6220  11.6220  11.6221  13.8207  13.8208  14.7634  16.5842

          k =-0.0833 0.0833-0.0833 (  8762 PWs)   bands (ev):

   -47.8988 -19.8263 -19.8253 -19.8253 -11.0928   1.5329   1.7260   1.7260
     6.2183  11.3507  11.7143  11.7143  13.6069  13.6069  15.2441  16.4751

          k =-0.1667 0.1667-0.1667 (  8762 PWs)   bands (ev):

   -47.8987 -19.8295 -19.8255 -19.8255 -11.0402   1.0392   1.6709   1.6709
     6.8349  10.9188  11.8780  11.8780  13.3573  13.3573  15.6106  16.9930

          k =-0.2500 0.2500-0.2500 (  8789 PWs)   bands (ev):

   -47.8986 -19.8337 -19.8258 -19.8258 -10.9666   0.4896   1.5980   1.5980
     7.4629  10.7619  11.8089  11.8089  13.6420  13.6420  15.2256  18.6347

          k =-0.3333 0.3333-0.3333 (  8766 PWs)   bands (ev):

   -47.8985 -19.8380 -19.8261 -19.8261 -10.8908   0.0224   1.5279   1.5279
     7.8252  11.0638  11.5675  11.5675  14.4721  14.4722  14.8649  19.7865

          k =-0.4167 0.4167-0.4167 (  8781 PWs)   bands (ev):

   -47.8985 -19.8411 -19.8263 -19.8263 -10.8338  -0.2857   1.4781   1.4781
     7.9290  11.3749  11.3749  11.6025  14.7010  15.6282  15.6282  18.4322

          k = 0.5000-0.5000 0.5000 (  8754 PWs)   bands (ev):

   -47.8985 -19.8422 -19.8264 -19.8264 -10.8127  -0.3929   1.4602   1.4602
     7.9410  11.3057  11.3057  11.8709  14.6973  16.8030  16.8032  17.3248

          k = 0.0000 0.1667 0.0000 (  8753 PWs)   bands (ev):

   -47.8988 -19.8263 -19.8255 -19.8255 -11.0867   1.5176   1.6930   1.6930
     6.3062  11.1934  11.7934  11.7934  13.1790  13.9168  15.4243  16.7680

          k =-0.0833 0.2500-0.0833 (  8789 PWs)   bands (ev):

   -47.8987 -19.8286 -19.8259 -19.8256 -11.0457   1.1494   1.6280   1.6495
     6.8071  10.8016  11.9346  11.9907  12.7516  13.8904  16.0573  16.9023

          k =-0.1667 0.3333-0.1667 (  8814 PWs)   bands (ev):

   -47.8987 -19.8323 -19.8262 -19.8258 -10.9797   0.6450   1.5505   1.5812
     7.4513  10.5580  11.6977  12.0410  13.0018  14.0750  15.8301  18.2027

          k =-0.2500 0.4167-0.2500 (  8781 PWs)   bands (ev):

   -47.8986 -19.8364 -19.8265 -19.8262 -10.9052   0.1742   1.4816   1.4938
     7.9277  10.7166  11.3299  11.8465  13.7603  14.7878  15.4622  19.8004

          k =-0.3333 0.5000-0.3333 (  8786 PWs)   bands (ev):

   -47.8985 -19.8398 -19.8267 -19.8266 -10.8422  -0.1706   1.4110   1.4382
     8.1099  11.0038  11.3410  11.6114  14.6592  15.3359  15.8770  18.3085

          k = 0.5833-0.4167 0.5833 (  8770 PWs)   bands (ev):

   -47.8984 -19.8415 -19.8269 -19.8266 -10.8091  -0.3371   1.3541   1.4301
     8.1457  10.9265  11.4634  11.8003  15.0569  15.9346  16.7846  17.4058

          k = 0.5000-0.3333 0.5000 (  8769 PWs)   bands (ev):

   -47.8985 -19.8412 -19.8271 -19.8264 -10.8160  -0.3023   1.3366   1.4591
     8.1475  10.9873  11.4471  11.6992  15.1454  15.4708  16.5988  17.0252

          k = 0.4167-0.2500 0.4167 (  8767 PWs)   bands (ev):

   -47.8985 -19.8388 -19.8271 -19.8260 -10.8607  -0.0718   1.3632   1.5187
     8.0885  11.0813  11.2549  11.5737  14.2552  15.2733  15.6278  18.2297

          k = 0.3333-0.1667 0.3333 (  8801 PWs)   bands (ev):

   -47.8986 -19.8351 -19.8268 -19.8256 -10.9298   0.3206   1.4302   1.5947
     7.8121  10.6728  11.5316  11.8241  13.3034  14.6024  15.5963  18.9048

          k = 0.2500-0.0833 0.2500 (  8788 PWs)   bands (ev):

   -47.8987 -19.8311 -19.8264 -19.8253 -11.0036   0.8071   1.5259   1.6676
     7.2382  10.6801  11.8191  12.0291  12.8032  13.9135  15.9918  17.4252

          k = 0.1667-0.0000 0.1667 (  8785 PWs)   bands (ev):

   -47.8988 -19.8279 -19.8258 -19.8252 -11.0628   1.2687   1.6353   1.7165
     6.6006  11.0179  11.8469  11.8584  13.0829  13.7000  15.8378  16.7036

          k = 0.0000 0.3333 0.0000 (  8800 PWs)   bands (ev):

   -47.8987 -19.8290 -19.8264 -19.8264 -11.0189   1.0262   1.5528   1.5528
     7.1351  10.4175  12.0614  12.2762  12.2762  14.1988  16.8954  17.3237

          k =-0.0833 0.4167-0.0833 (  8803 PWs)   bands (ev):

   -47.8986 -19.8316 -19.8269 -19.8267 -10.9660   0.6847   1.4676   1.4680
     7.6750  10.1087  11.4750  12.4918  12.7846  14.4304  17.0293  18.0336

          k =-0.1667 0.5000-0.1667 (  8789 PWs)   bands (ev):

   -47.8985 -19.8349 -19.8273 -19.8271 -10.9002   0.3022   1.3534   1.3951
     8.2059  10.0958  10.9950  12.3963  13.5150  15.0691  16.7091  19.1935

          k =-0.2500 0.5833-0.2500 (  8767 PWs)   bands (ev):

   -47.8985 -19.8379 -19.8277 -19.8274 -10.8389  -0.0087   1.2197   1.3529
     8.4979  10.4025  10.8085  12.1428  14.3056  16.1109  16.5359  18.2616

          k = 0.6667-0.3333 0.6667 (  8755 PWs)   bands (ev):

   -47.8984 -19.8398 -19.8284 -19.8273 -10.7994  -0.1877   1.1029   1.3503
     8.6085  10.3594  11.3428  11.9204  14.8075  16.5105  16.8029  17.5292

          k = 0.5833-0.2500 0.5833 (  8776 PWs)   bands (ev):

   -47.8984 -19.8400 -19.8289 -19.8269 -10.7934  -0.2071   1.0356   1.3878
     8.6725  10.3736  11.5448  11.8065  15.2140  15.4649  16.3167  17.8890

          k = 0.5000-0.1667 0.5000 (  8773 PWs)   bands (ev):

   -47.8985 -19.8387 -19.8290 -19.8264 -10.8227  -0.0694   1.0408   1.4570
     8.6743  10.5747  11.0467  11.8304  14.2267  16.1518  16.3838  17.3134

          k = 0.4167-0.0833 0.4167 (  8771 PWs)   bands (ev):

   -47.8985 -19.8362 -19.8286 -19.8259 -10.8784   0.1905   1.1321   1.5417
     8.4440  10.5235  10.9526  12.0025  13.2258  15.7726  16.6731  18.0490

          k = 0.3333 0.0000 0.3333 (  8783 PWs)   bands (ev):

   -47.8986 -19.8334 -19.8277 -19.8255 -10.9447   0.5073   1.3084   1.6194
     7.8720  10.4486  11.4301  12.2996  12.5177  14.7286  16.9102  17.2812

          k = 0.0000 0.5000 0.0000 (  8836 PWs)   bands (ev):

   -47.8986 -19.8323 -19.8276 -19.8276 -10.9286   0.5355   1.3741   1.3741
     7.9930   9.7080  11.2247  12.9952  12.9953  14.6438  18.2434  18.2434

          k =-0.0833 0.5833-0.0833 (  8777 PWs)   bands (ev):

   -47.8985 -19.8342 -19.8282 -19.8281 -10.8769   0.2962   1.2581   1.2949
     8.3341   9.5206  11.0007  13.1516  13.5577  15.1540  18.2042  19.0043

          k =-0.1667 0.6667-0.1667 (  8779 PWs)   bands (ev):

   -47.8984 -19.8363 -19.8290 -19.8283 -10.8245   0.0910   1.0763   1.2489
     8.6033   9.6731  10.8564  12.9277  14.2496  16.1622  17.9617  18.4258

          k = 0.7500-0.2500 0.7500 (  8768 PWs)   bands (ev):

   -47.8984 -19.8376 -19.8301 -19.8282 -10.7858  -0.0194   0.8667   1.2461
     8.7799   9.9938  10.9670  12.6318  14.5019  16.9084  17.5259  17.7896

          k = 0.6667-0.1667 0.6667 (  8761 PWs)   bands (ev):

   -47.8984 -19.8379 -19.8311 -19.8277 -10.7718  -0.0226   0.7017   1.2871
     8.9891  10.1052  11.2605  12.3940  14.2664  15.6565  17.5437  18.7005

          k = 0.5833-0.0833 0.5833 (  8776 PWs)   bands (ev):

   -47.8984 -19.8375 -19.8314 -19.8271 -10.7867   0.0414   0.6689   1.3630
     9.2105  10.1735  10.9744  12.2439  14.4796  14.7921  17.7248  18.5925

          k = 0.5000 0.0000 0.5000 (  8800 PWs)   bands (ev):

   -47.8985 -19.8369 -19.8305 -19.8264 -10.8260   0.1084   0.8330   1.4560
     9.0844  10.4282  10.5392  12.1485  13.6189  16.0242  17.3986  17.8926

          k = 0.0000 0.6667 0.0000 (  8752 PWs)   bands (ev):

   -47.8985 -19.8349 -19.8288 -19.8288 -10.8414   0.1673   1.2080   1.2080
     8.2865   9.1736  11.2888  13.8620  13.8621  15.1948  19.2191  19.2192

          k =-0.0833 0.7500-0.0833 (  8780 PWs)   bands (ev):

   -47.8984 -19.8359 -19.8295 -19.8291 -10.8028   0.0446   1.0796   1.1548
     8.3141   9.1071  11.5040  13.8938  14.3931  15.9308  18.2110  18.7393

          k = 0.8333-0.1667 0.8333 (  8775 PWs)   bands (ev):

   -47.8984 -19.8364 -19.8310 -19.8291 -10.7719   0.0144   0.8389   1.1471
     8.4595   9.3785  11.5706  13.5297  14.5250  16.9884  17.6240  17.6558

          k = 0.7500-0.0833 0.7500 (  8764 PWs)   bands (ev):

   -47.8983 -19.8358 -19.8329 -19.8286 -10.7571   0.1098   0.5418   1.1863
     8.6989   9.8650  11.5294  13.1151  13.9344  16.0932  18.2038  18.6968

          k = 0.6667-0.0000 0.6667 (  8764 PWs)   bands (ev):

   -47.8984 -19.8358 -19.8336 -19.8279 -10.7626   0.2420   0.3523   1.2643
     9.0340  10.2096  11.2067  12.6908  13.8715  15.1044  18.8740  18.9471

          k = 0.0000 0.8333 0.0000 (  8796 PWs)   bands (ev):

   -47.8984 -19.8364 -19.8297 -19.8297 -10.7797  -0.0476   1.0932   1.0932
     8.0675   8.8460  12.1058  14.7517  14.7517  15.7165  18.0967  18.4411

          k = 0.9167-0.0833 0.9167 (  8784 PWs)   bands (ev):

   -47.8983 -19.8366 -19.8304 -19.8297 -10.7615  -0.0714   0.9770   1.0775
     8.0930   8.8954  12.3210  14.5159  14.8699  16.5519  17.5949  17.7059

          k = 0.8333 0.0000 0.8333 (  8794 PWs)   bands (ev):

   -47.8983 -19.8360 -19.8320 -19.8294 -10.7532   0.0074   0.7391   1.1108
     8.3408   9.2805  12.1204  13.8565  14.2575  16.7981  17.7329  18.3767

          k = 0.0000-1.0000 0.0000 (  8744 PWs)   bands (ev):

   -47.8983 -19.8369 -19.8300 -19.8300 -10.7576  -0.1166   1.0526   1.0526
     7.9341   8.7359  12.6151  15.2456  15.2457  15.9510  17.3655  17.8217

          k =-0.1667 0.3333 0.0000 (  8786 PWs)   bands (ev):

   -47.8987 -19.8307 -19.8267 -19.8257 -10.9986   0.8371   1.4847   1.6151
     7.3339  10.4653  11.7585  12.2855  12.5350  14.1465  16.7111  17.1067

          k =-0.2500 0.4167-0.0833 (  8792 PWs)   bands (ev):

   -47.8986 -19.8339 -19.8275 -19.8259 -10.9328   0.4403   1.3410   1.5522
     7.9537  10.3266  11.2776  12.2522  12.9648  14.7867  16.5176  18.1497

          k =-0.3333 0.5000-0.1667 (  8784 PWs)   bands (ev):

   -47.8985 -19.8373 -19.8279 -19.8263 -10.8654   0.0762   1.2332   1.4728
     8.3686  10.5983  10.8854  11.9881  13.7986  15.7645  16.2034  18.1720

          k = 0.5833-0.4167 0.7500 (  8772 PWs)   bands (ev):

   -47.8984 -19.8397 -19.8281 -19.8267 -10.8149  -0.1730   1.1688   1.4076
     8.4999  10.5631  11.2845  11.7903  14.7252  16.0273  16.5531  17.1533

          k = 0.5000-0.3333 0.6667 (  8768 PWs)   bands (ev):

   -47.8984 -19.8406 -19.8281 -19.8269 -10.7961  -0.2611   1.1478   1.3824
     8.5189  10.4740  11.6559  11.7110  15.3085  15.6403  16.6712  17.1718

          k =-0.1667 0.5000 0.0000 (  8785 PWs)   bands (ev):

   -47.8986 -19.8335 -19.8280 -19.8269 -10.9136   0.4314   1.2935   1.4258
     8.1667   9.8652  11.0488  12.8421  13.0211  14.9580  17.7764  17.9353

          k =-0.2500 0.5833-0.0833 (  8774 PWs)   bands (ev):

   -47.8985 -19.8358 -19.8288 -19.8273 -10.8550   0.1769   1.1265   1.3514
     8.6369   9.9190  10.6703  12.6801  13.7084  15.8976  17.5629  18.2351

          k = 0.6667-0.3333 0.8333 (  8763 PWs)   bands (ev):

   -47.8984 -19.8378 -19.8294 -19.8277 -10.8059  -0.0115   0.9782   1.2901
     8.8849  10.1428  10.6740  12.4209  14.4198  16.6824  17.0272  17.5858

          k = 0.5833-0.2500 0.7500 (  8772 PWs)   bands (ev):

   -47.8984 -19.8387 -19.8299 -19.8277 -10.7803  -0.0953   0.8686   1.2784
     9.0210  10.0368  11.2226  12.2044  14.5517  16.1013  17.2324  17.6625

          k = 0.5000-0.1667 0.6667 (  8774 PWs)   bands (ev):

   -47.8984 -19.8385 -19.8303 -19.8273 -10.7857  -0.0646   0.8324   1.3204
     9.1173  10.0529  11.1442  12.1532  14.6302  15.4189  17.1642  18.1977

          k = 0.4167-0.0833 0.5833 (  8772 PWs)   bands (ev):

   -47.8984 -19.8373 -19.8300 -19.8268 -10.8206   0.0594   0.9025   1.3993
     9.0477  10.3028  10.5339  12.2534  13.9211  16.1744  17.2114  17.5657

          k = 0.3333 0.0000 0.5000 (  8789 PWs)   bands (ev):

   -47.8985 -19.8356 -19.8290 -19.8262 -10.8747   0.2379   1.0874   1.4874
     8.5992  10.2290  10.7531  12.3761  13.1679  15.8432  17.5877  17.8551

          k =-0.1667 0.6667 0.0000 (  8792 PWs)   bands (ev):

   -47.8984 -19.8355 -19.8292 -19.8284 -10.8322   0.1437   1.1165   1.2225
     8.5252   9.3882  10.9930  13.4224  13.9145  15.8549  18.2989  18.9465

          k = 0.7500-0.2500 0.9167 (  8764 PWs)   bands (ev):

   -47.8984 -19.8364 -19.8302 -19.8288 -10.7913   0.0546   0.9187   1.1593
     8.7320   9.5737  10.9623  13.1861  14.4852  16.7178  17.2061  18.6273

          k = 0.6667-0.1667 0.8333 (  8764 PWs)   bands (ev):

   -47.8984 -19.8366 -19.8316 -19.8288 -10.7657   0.0628   0.6797   1.1548
     8.9329   9.9342  11.0454  12.7629  14.4330  16.4557  17.2987  18.8002

          k = 0.5833-0.0833 0.7500 (  8763 PWs)   bands (ev):

   -47.8984 -19.8364 -19.8326 -19.8282 -10.7626   0.1382   0.5062   1.2078
     9.2149  10.0808  11.0795  12.4278  14.2681  15.4116  18.0340  19.2311

          k = 0.5000 0.0000 0.6667 (  8753 PWs)   bands (ev):

   -47.8984 -19.8367 -19.8320 -19.8275 -10.7828   0.1170   0.6035   1.2990
     9.5038  10.0044  10.6444  12.4231  14.4479  14.9243  18.3118  18.5884

          k = 0.8333-0.1667 1.0000 (  8784 PWs)   bands (ev):

   -47.8984 -19.8363 -19.8301 -19.8297 -10.7750  -0.0095   0.9947   1.0665
     8.3246   9.0893  11.7695  13.8901  14.8290  16.4927  17.3761  18.4623

          k = 0.7500-0.0833 0.9167 (  8764 PWs)   bands (ev):

   -47.8983 -19.8359 -19.8316 -19.8297 -10.7562   0.0358   0.7688   1.0503
     8.5310   9.3918  11.7748  13.2447  14.9126  16.8681  17.1153  18.2319

          k = 0.6667-0.0000 0.8333 (  8782 PWs)   bands (ev):

   -47.8983 -19.8347 -19.8338 -19.8291 -10.7517   0.1838   0.4794   1.1079
     8.8418   9.9020  11.5061  12.6013  14.4682  16.0420  18.0367  18.5751

          k =-0.1667-1.0000-0.0000 (  8788 PWs)   bands (ev):

   -47.8983 -19.8365 -19.8304 -19.8303 -10.7546  -0.0542   0.9515   1.0072
     8.1921   8.9880  12.3346  13.9121  15.3395  16.5457  17.4846  17.8457

          k = 0.6667-0.3333 1.0000 (  8760 PWs)   bands (ev):

   -47.8984 -19.8364 -19.8304 -19.8278 -10.8092   0.1034   0.8851   1.2632
     9.1531   9.9503  10.3221  12.8027  14.0876  16.3902  17.2819  18.6022

          k = 0.5833-0.2500 0.9167 (  8764 PWs)   bands (ev):

   -47.8984 -19.8367 -19.8314 -19.8284 -10.7751   0.0837   0.6971   1.1738
     9.4578   9.9281  10.5167  12.5642  14.6187  15.6460  17.7208  18.8640

          k = 0.5000-0.1667 0.8333 (  8774 PWs)   bands (ev):

   -47.8984 -19.8368 -19.8317 -19.8287 -10.7626   0.0866   0.6223   1.1369
     9.6291   9.7005  10.9639  12.2810  14.4918  16.0078  17.2948  18.9664

          k = 0.6667-0.1667 1.0000 (  8751 PWs)   bands (ev):

   -47.8984 -19.8359 -19.8313 -19.8297 -10.7643   0.0973   0.7469   1.0303
     8.9940   9.7460  10.9221  12.8634  15.0629  16.0266  17.5894  18.5045

          k = 0.5833-0.0833 0.9167 (  8771 PWs)   bands (ev):

   -47.8983 -19.8349 -19.8327 -19.8300 -10.7509   0.2212   0.5252   0.9843
     9.2341  10.1107  10.9254  12.1366  15.1756  16.2067  17.2198  18.4395

          k = 0.5000 0.0000 0.8333 (  8760 PWs)   bands (ev):

   -47.8983 -19.8351 -19.8330 -19.8294 -10.7549   0.2606   0.4481   1.0495
     9.4771  10.1949  10.6327  12.1434  15.1125  15.4615  17.9239  18.5449

          k =-0.3333-1.0000 0.0000 (  8790 PWs)   bands (ev):

   -47.8983 -19.8352 -19.8317 -19.8308 -10.7486   0.1249   0.6981   0.9198
     8.8509   9.6729  11.5906  12.4033  15.6251  16.7184  16.7779  17.8962

          k =-0.5000-1.0000 0.0000 (  8760 PWs)   bands (ev):

   -47.8983 -19.8334 -19.8334 -19.8311 -10.7455   0.3936   0.3936   0.8776
     9.3549  10.6164  10.6164  11.6180  16.1099  16.1099  16.7654  17.9227

     the Fermi energy is     2.9068 ev
     (compare with:     2.9071 eV, computed in scf)

     Writing all to output data dir out/mp-22916.save/
 
     init_run     :      0.13s CPU      0.14s WALL (       1 calls)
     electrons    :     17.08s CPU     17.50s WALL (       1 calls)

     Called by init_run:
     wfcinit      :      0.00s CPU      0.00s WALL (       1 calls)
     potinit      :      0.03s CPU      0.03s WALL (       1 calls)
     hinit0       :      0.02s CPU      0.02s WALL (       1 calls)

     Called by electrons:
     c_bands      :     17.08s CPU     17.50s WALL (       1 calls)
     v_of_rho     :      0.02s CPU      0.03s WALL (       1 calls)

     Called by c_bands:
     init_us_2    :      0.02s CPU      0.02s WALL (      72 calls)
     init_us_2:cp :      0.02s CPU      0.02s WALL (      72 calls)
     cegterg      :     16.14s CPU     16.53s WALL (     145 calls)

     Called by *egterg:
     cdiaghg      :      0.74s CPU      0.76s WALL (    2207 calls)
     h_psi        :     14.27s CPU     14.62s WALL (    2352 calls)
     g_psi        :      0.14s CPU      0.15s WALL (    2135 calls)

     Called by h_psi:
     h_psi:calbec :      0.34s CPU      0.35s WALL (    2352 calls)
     vloc_psi     :     13.62s CPU     13.96s WALL (    2352 calls)
     add_vuspsi   :      0.24s CPU      0.25s WALL (    2352 calls)

     General routines
     calbec       :      0.34s CPU      0.35s WALL (    2352 calls)
     fft          :      0.01s CPU      0.02s WALL (      10 calls)
     fftw         :     12.05s CPU     12.35s WALL (   48882 calls)
 
     Parallel routines
 
     PWSCF        :     17.56s CPU     18.20s WALL

 
   This run was terminated on:  14:36:36   3Jan2024            

=------------------------------------------------------------------------------=
   JOB DONE.
=------------------------------------------------------------------------------=
