
     Program PWSCF v.7.1 starts on 11Apr2024 at  9:51:51 

     This program is part of the open-source Quantum ESPRESSO suite
     for quantum simulation of materials; please cite
         "P. Giannozzi et al., J. Phys.:Condens. Matter 21 395502 (2009);
         "P. Giannozzi et al., J. Phys.:Condens. Matter 29 465901 (2017);
         "P. Giannozzi et al., J. Chem. Phys. 152 154105 (2020);
          URL http://www.quantum-espresso.org", 
     in publications or presentations arising from this work. More details at
     http://www.quantum-espresso.org/quote

     Parallel version (MPI), running on    16 processors

     MPI processes distributed on     1 nodes
     220100 MiB available memory on the printing compute node when the environment starts
 
     Reading input from pw_mp-66_nscf_k3000_E130.in
Warning: card &IONS ignored
Warning: card / ignored
Warning: card &CELL ignored
Warning: card / ignored

     Current dimensions of program PWSCF are:
     Max number of different atomic species (ntypx) = 10
     Max number of k-points (npk) =  40000
     Max angular momentum in pseudopotentials (lmaxx) =  4

     Atomic positions and unit cell read from directory:
     out/mp-66.save/
     Atomic positions from file used, from input discarded
 
 
     R & G space division:  proc/nbgrp/npool/nimage =      16
     Subspace diagonalization in iterative solution of the eigenvalue problem:
     a serial algorithm will be used

 
     Parallelization info
     --------------------
     sticks:   dense  smooth     PW     G-vecs:    dense   smooth      PW
     Min          51      51     15                  958      958     164
     Max          52      52     16                  961      961     166
     Sum         817     817    253                15353    15353    2637
 
     Using Slab Decomposition
 


     bravais-lattice index     =            2
     lattice parameter (alat)  =       6.7288  a.u.
     unit-cell volume          =      76.1657 (a.u.)^3
     number of atoms/cell      =            2
     number of atomic types    =            1
     number of electrons       =         8.00
     number of Kohn-Sham states=            8
     kinetic-energy cutoff     =     130.0000  Ry
     charge density cutoff     =     520.0000  Ry
     Exchange-correlation= PBE
                           (   1   4   3   4   0   0   0)

     celldm(1)=   6.728833  celldm(2)=   0.000000  celldm(3)=   0.000000
     celldm(4)=   0.000000  celldm(5)=   0.000000  celldm(6)=   0.000000

     crystal axes: (cart. coord. in units of alat)
               a(1) = (  -0.500000   0.000000   0.500000 )  
               a(2) = (   0.000000   0.500000   0.500000 )  
               a(3) = (  -0.500000   0.500000   0.000000 )  

     reciprocal axes: (cart. coord. in units 2 pi/alat)
               b(1) = ( -1.000000 -1.000000  1.000000 )  
               b(2) = (  1.000000  1.000000  1.000000 )  
               b(3) = ( -1.000000  1.000000 -1.000000 )  


     PseudoPot. # 1 for C  read from file:
     /usr/scratch4/magr4826/Promotion/Python/Code/devEb/pseudo/SG15/C.upf
     MD5 check sum: 1a5f83a7b1f58d24996abe00ed223ac6
     Pseudo is Norm-conserving, Zval =  4.0
     Generated using ONCVPSP code by D. R. Hamann
     Using radial grid of  602 points,  4 beta functions with: 
                l(1) =   0
                l(2) =   0
                l(3) =   1
                l(4) =   1

     atomic species   valence    mass     pseudopotential
        C              4.00    12.01070     C ( 1.00)

     48 Sym. Ops., with inversion, found (24 have fractional translation)



   Cartesian axes

     site n.     atom                  positions (alat units)
         1           C   tau(   1) = (  -0.5000000   0.5000000   0.0000000  )
         2           C   tau(   2) = (  -0.7500000   0.7500000   0.7500000  )

     number of k points=    72  Gaussian smearing, width (Ry)=  0.0005
                       cart. coord. in units 2pi/alat
        k(    1) = (   0.0000000   0.0000000   0.0000000), wk =   0.0011574
        k(    2) = (  -0.0833333   0.0833333  -0.0833333), wk =   0.0092593
        k(    3) = (  -0.1666667   0.1666667  -0.1666667), wk =   0.0092593
        k(    4) = (  -0.2500000   0.2500000  -0.2500000), wk =   0.0092593
        k(    5) = (  -0.3333333   0.3333333  -0.3333333), wk =   0.0092593
        k(    6) = (  -0.4166667   0.4166667  -0.4166667), wk =   0.0092593
        k(    7) = (   0.5000000  -0.5000000   0.5000000), wk =   0.0046296
        k(    8) = (   0.0000000   0.1666667   0.0000000), wk =   0.0069444
        k(    9) = (  -0.0833333   0.2500000  -0.0833333), wk =   0.0277778
        k(   10) = (  -0.1666667   0.3333333  -0.1666667), wk =   0.0277778
        k(   11) = (  -0.2500000   0.4166667  -0.2500000), wk =   0.0277778
        k(   12) = (  -0.3333333   0.5000000  -0.3333333), wk =   0.0277778
        k(   13) = (   0.5833333  -0.4166667   0.5833333), wk =   0.0277778
        k(   14) = (   0.5000000  -0.3333333   0.5000000), wk =   0.0277778
        k(   15) = (   0.4166667  -0.2500000   0.4166667), wk =   0.0277778
        k(   16) = (   0.3333333  -0.1666667   0.3333333), wk =   0.0277778
        k(   17) = (   0.2500000  -0.0833333   0.2500000), wk =   0.0277778
        k(   18) = (   0.1666667  -0.0000000   0.1666667), wk =   0.0138889
        k(   19) = (   0.0000000   0.3333333   0.0000000), wk =   0.0069444
        k(   20) = (  -0.0833333   0.4166667  -0.0833333), wk =   0.0277778
        k(   21) = (  -0.1666667   0.5000000  -0.1666667), wk =   0.0277778
        k(   22) = (  -0.2500000   0.5833333  -0.2500000), wk =   0.0277778
        k(   23) = (   0.6666667  -0.3333333   0.6666667), wk =   0.0277778
        k(   24) = (   0.5833333  -0.2500000   0.5833333), wk =   0.0277778
        k(   25) = (   0.5000000  -0.1666667   0.5000000), wk =   0.0277778
        k(   26) = (   0.4166667  -0.0833333   0.4166667), wk =   0.0277778
        k(   27) = (   0.3333333   0.0000000   0.3333333), wk =   0.0138889
        k(   28) = (   0.0000000   0.5000000   0.0000000), wk =   0.0069444
        k(   29) = (  -0.0833333   0.5833333  -0.0833333), wk =   0.0277778
        k(   30) = (  -0.1666667   0.6666667  -0.1666667), wk =   0.0277778
        k(   31) = (   0.7500000  -0.2500000   0.7500000), wk =   0.0277778
        k(   32) = (   0.6666667  -0.1666667   0.6666667), wk =   0.0277778
        k(   33) = (   0.5833333  -0.0833333   0.5833333), wk =   0.0277778
        k(   34) = (   0.5000000   0.0000000   0.5000000), wk =   0.0138889
        k(   35) = (   0.0000000   0.6666667   0.0000000), wk =   0.0069444
        k(   36) = (  -0.0833333   0.7500000  -0.0833333), wk =   0.0277778
        k(   37) = (   0.8333333  -0.1666667   0.8333333), wk =   0.0277778
        k(   38) = (   0.7500000  -0.0833333   0.7500000), wk =   0.0277778
        k(   39) = (   0.6666667  -0.0000000   0.6666667), wk =   0.0138889
        k(   40) = (   0.0000000   0.8333333   0.0000000), wk =   0.0069444
        k(   41) = (   0.9166667  -0.0833333   0.9166667), wk =   0.0277778
        k(   42) = (   0.8333333   0.0000000   0.8333333), wk =   0.0138889
        k(   43) = (   0.0000000  -1.0000000   0.0000000), wk =   0.0034722
        k(   44) = (  -0.1666667   0.3333333   0.0000000), wk =   0.0277778
        k(   45) = (  -0.2500000   0.4166667  -0.0833333), wk =   0.0555556
        k(   46) = (  -0.3333333   0.5000000  -0.1666667), wk =   0.0555556
        k(   47) = (   0.5833333  -0.4166667   0.7500000), wk =   0.0555556
        k(   48) = (   0.5000000  -0.3333333   0.6666667), wk =   0.0277778
        k(   49) = (  -0.1666667   0.5000000   0.0000000), wk =   0.0277778
        k(   50) = (  -0.2500000   0.5833333  -0.0833333), wk =   0.0555556
        k(   51) = (   0.6666667  -0.3333333   0.8333333), wk =   0.0555556
        k(   52) = (   0.5833333  -0.2500000   0.7500000), wk =   0.0555556
        k(   53) = (   0.5000000  -0.1666667   0.6666667), wk =   0.0555556
        k(   54) = (   0.4166667  -0.0833333   0.5833333), wk =   0.0555556
        k(   55) = (   0.3333333   0.0000000   0.5000000), wk =   0.0277778
        k(   56) = (  -0.1666667   0.6666667  -0.0000000), wk =   0.0277778
        k(   57) = (   0.7500000  -0.2500000   0.9166667), wk =   0.0555556
        k(   58) = (   0.6666667  -0.1666667   0.8333333), wk =   0.0555556
        k(   59) = (   0.5833333  -0.0833333   0.7500000), wk =   0.0555556
        k(   60) = (   0.5000000   0.0000000   0.6666667), wk =   0.0277778
        k(   61) = (   0.8333333  -0.1666667   1.0000000), wk =   0.0277778
        k(   62) = (   0.7500000  -0.0833333   0.9166667), wk =   0.0555556
        k(   63) = (   0.6666667   0.0000000   0.8333333), wk =   0.0277778
        k(   64) = (  -0.1666667  -1.0000000  -0.0000000), wk =   0.0138889
        k(   65) = (   0.6666667  -0.3333333   1.0000000), wk =   0.0277778
        k(   66) = (   0.5833333  -0.2500000   0.9166667), wk =   0.0555556
        k(   67) = (   0.5000000  -0.1666667   0.8333333), wk =   0.0277778
        k(   68) = (   0.6666667  -0.1666667   1.0000000), wk =   0.0277778
        k(   69) = (   0.5833333  -0.0833333   0.9166667), wk =   0.0555556
        k(   70) = (   0.5000000   0.0000000   0.8333333), wk =   0.0277778
        k(   71) = (  -0.3333333  -1.0000000   0.0000000), wk =   0.0138889
        k(   72) = (  -0.5000000  -1.0000000   0.0000000), wk =   0.0069444

     Dense  grid:    15353 G-vectors     FFT dimensions: (  36,  36,  36)

     Estimated max dynamical RAM per process >       2.07 MB

     Estimated total dynamical RAM >      33.14 MB

     The potential is recalculated from file :
     out/mp-66.save/charge-density

     Starting wfcs are random

     Band Structure Calculation
     Davidson diagonalization with overlap

     ethr =  5.00E-06,  avg # of iterations = 16.0

     total cpu time spent up to now is        3.9 secs

     End of band structure calculation

          k = 0.0000 0.0000 0.0000 (  1917 PWs)   bands (ev):

    -8.0988  13.4006  13.4006  13.4006  19.0147  19.0147  19.0147  26.8644

          k =-0.0833 0.0833-0.0833 (  1898 PWs)   bands (ev):

    -7.9061  12.1752  13.0771  13.0771  19.4383  19.4383  19.7346  27.0215

          k =-0.1667 0.1667-0.1667 (  1913 PWs)   bands (ev):

    -7.3304   9.6438  12.3740  12.3740  20.3595  20.3595  20.8420  27.4735

          k =-0.2500 0.2500-0.2500 (  1910 PWs)   bands (ev):

    -6.3800   6.8054  11.6485  11.6485  21.2200  21.2200  21.6183  28.1097

          k =-0.3333 0.3333-0.3333 (  1898 PWs)   bands (ev):

    -5.0758   4.0217  11.0723  11.0723  21.7121  21.7121  22.0643  28.7009

          k =-0.4167 0.4167-0.4167 (  1904 PWs)   bands (ev):

    -3.4918   1.5082  10.7115  10.7115  21.8750  21.8750  22.2904  29.0425

          k = 0.5000-0.5000 0.5000 (  1916 PWs)   bands (ev):

    -2.2988  -0.0010  10.5894  10.5894  21.8994  21.8994  22.3601  29.1363

          k = 0.0000 0.1667 0.0000 (  1913 PWs)   bands (ev):

    -7.8419  12.4874  12.4874  12.7897  18.8225  20.1472  20.1472  26.9750

          k =-0.0833 0.2500-0.0833 (  1909 PWs)   bands (ev):

    -7.3940  10.5057  11.6824  12.4571  19.1200  21.2218  21.2453  27.0319

          k =-0.1667 0.3333-0.1667 (  1920 PWs)   bands (ev):

    -6.5685   7.8127  10.9591  11.7913  19.9764  22.1269  22.1706  27.2133

          k =-0.2500 0.4167-0.2500 (  1911 PWs)   bands (ev):

    -5.3809   5.0370  10.4511  11.0411  20.7586  22.6495  22.6772  27.6887

          k =-0.3333 0.5000-0.3333 (  1899 PWs)   bands (ev):

    -3.8773   2.4351  10.2081  10.3963  21.2218  22.7312  22.9137  28.4445

          k = 0.5833-0.4167 0.5833 (  1908 PWs)   bands (ev):

    -2.3463   0.3897   9.9449  10.2402  21.5163  22.5337  23.0072  29.0288

          k = 0.5000-0.3333 0.5000 (  1904 PWs)   bands (ev):

    -2.7991   0.9476   9.7333  10.5346  21.8007  22.2393  22.9646  29.0545

          k = 0.4167-0.2500 0.4167 (  1908 PWs)   bands (ev):

    -4.4080   3.2748   9.7878  11.0596  21.8348  22.0403  22.7682  28.5406

          k = 0.3333-0.1667 0.3333 (  1910 PWs)   bands (ev):

    -5.8157   5.9614  10.1179  11.7575  21.1917  22.0302  22.3134  27.8778

          k = 0.2500-0.0833 0.2500 (  1916 PWs)   bands (ev):

    -6.8851   8.7413  10.7140  12.5117  20.3060  21.4475  21.5938  27.4338

          k = 0.1667-0.0000 0.1667 (  1913 PWs)   bands (ev):

    -7.5858  11.1599  11.6543  13.0734  19.5346  20.3430  20.6872  27.1783

          k = 0.0000 0.3333 0.0000 (  1908 PWs)   bands (ev):

    -7.0749  10.8207  10.8207  11.1704  18.3663  22.4543  22.4543  26.1996

          k =-0.0833 0.4167-0.0833 (  1920 PWs)   bands (ev):

    -6.3776   8.7381  10.0668  10.7333  18.6302  23.5545  23.5958  25.4045

          k =-0.1667 0.5000-0.1667 (  1914 PWs)   bands (ev):

    -5.3141   6.1745   9.5530   9.9742  19.4599  24.2408  24.2915  25.2561

          k =-0.2500 0.5833-0.2500 (  1909 PWs)   bands (ev):

    -3.9169   3.6179   9.1273   9.3332  20.1288  24.4295  24.5851  26.1506

          k = 0.6667-0.3333 0.6667 (  1919 PWs)   bands (ev):

    -2.3278   1.3702   8.4075   9.4203  20.5549  24.1609  24.7106  27.7361

          k = 0.5833-0.2500 0.5833 (  1909 PWs)   bands (ev):

    -1.8937   0.8499   7.9194   9.7997  20.9940  23.6698  24.6906  28.8780

          k = 0.5000-0.1667 0.5000 (  1906 PWs)   bands (ev):

    -3.3996   2.8523   7.7195  10.4288  21.5206  23.0009  24.5102  28.3866

          k = 0.4167-0.0833 0.4167 (  1910 PWs)   bands (ev):

    -4.8869   5.3611   7.8513  11.2235  21.9832  22.0989  23.9607  27.4269

          k = 0.3333 0.0000 0.3333 (  1907 PWs)   bands (ev):

    -6.0650   7.7053   8.5824  12.0190  21.0560  22.0790  22.8015  27.1921

          k = 0.0000 0.5000 0.0000 (  1924 PWs)   bands (ev):

    -5.8096   8.8969   9.2651   9.2651  17.8899  23.7343  25.0195  25.0195

          k =-0.0833 0.5833-0.0833 (  1913 PWs)   bands (ev):

    -4.8745   6.9753   8.6526   8.7019  18.2201  22.8306  26.0405  26.0422

          k =-0.1667 0.6667-0.1667 (  1910 PWs)   bands (ev):

    -3.5971   4.7680   7.6452   8.4423  19.0100  23.1706  26.4363  26.5752

          k = 0.7500-0.2500 0.7500 (  1903 PWs)   bands (ev):

    -2.0609   2.6052   6.6518   8.5068  19.5389  24.8968  26.2462  26.7906

          k = 0.6667-0.1667 0.6667 (  1908 PWs)   bands (ev):

    -0.9575   1.3111   5.8996   8.8860  20.0145  25.6393  26.7254  27.3480

          k = 0.5833-0.0833 0.5833 (  1910 PWs)   bands (ev):

    -2.0999   2.7413   5.4923   9.5392  20.6476  24.6953  26.6595  28.3209

          k = 0.5000 0.0000 0.5000 (  1915 PWs)   bands (ev):

    -3.6205   4.7000   5.7772  10.3778  21.3898  23.4398  25.8118  27.3885

          k = 0.0000 0.6667 0.0000 (  1932 PWs)   bands (ev):

    -4.0695   6.2318   8.0715   8.0715  17.6084  21.2197  27.4762  27.4762

          k =-0.0833 0.7500-0.0833 (  1920 PWs)   bands (ev):

    -2.9190   4.7221   7.1668   7.7419  18.0637  20.7097  28.2510  28.3151

          k = 0.8333-0.1667 0.8333 (  1898 PWs)   bands (ev):

    -1.4794   3.1846   5.7279   7.7430  18.7288  21.8222  28.2591  28.6531

          k = 0.7500-0.0833 0.7500 (  1898 PWs)   bands (ev):

    -0.0897   1.8996   4.4620   8.0730  19.1881  24.2819  27.5908  28.6958

          k = 0.6667-0.0000 0.6667 (  1896 PWs)   bands (ev):

    -0.6530   2.4625   3.9998   8.6985  19.8137  26.3517  26.9893  28.4518

          k = 0.0000 0.8333 0.0000 (  1904 PWs)   bands (ev):

    -1.8971   3.4035   7.3306   7.3306  17.6783  19.3708  29.4309  29.4309

          k = 0.9167-0.0833 0.9167 (  1907 PWs)   bands (ev):

    -0.5730   2.0507   6.5286   7.2495  18.2365  19.3702  29.7064  29.8457

          k = 0.8333 0.0000 0.8333 (  1908 PWs)   bands (ev):

     0.7343   1.0940   5.1150   7.5052  18.6385  21.3636  29.0477  29.6500

          k = 0.0000-1.0000 0.0000 (  1924 PWs)   bands (ev):

     0.6341   0.6341   7.0799   7.0799  18.2256  18.2256  30.2303  30.2303

          k =-0.1667 0.3333 0.0000 (  1916 PWs)   bands (ev):

    -6.8212   9.3987  10.0701  12.0561  19.3593  22.2185  22.4052  26.6658

          k =-0.2500 0.4167-0.0833 (  1918 PWs)   bands (ev):

    -5.8764   7.0158   9.2152  11.3923  20.2256  22.7242  23.5181  26.4962

          k =-0.3333 0.5000-0.1667 (  1915 PWs)   bands (ev):

    -4.5820   4.3731   8.8219  10.6142  21.0513  22.7576  24.1963  27.0867

          k = 0.5833-0.4167 0.7500 (  1913 PWs)   bands (ev):

    -3.0153   1.9340   8.6903   9.9794  21.5023  22.5751  24.4980  28.2344

          k = 0.5000-0.3333 0.6667 (  1906 PWs)   bands (ev):

    -1.8464   0.4656   8.6907   9.7139  21.6386  22.4682  24.5828  28.9019

          k =-0.1667 0.5000 0.0000 (  1909 PWs)   bands (ev):

    -5.5611   7.6549   8.5672  10.1615  18.9294  24.2385  24.4710  25.0096

          k =-0.2500 0.5833-0.0833 (  1915 PWs)   bands (ev):

    -4.3896   5.5128   7.8084   9.4256  19.8474  24.0742  24.7180  26.0935

          k = 0.6667-0.3333 0.8333 (  1905 PWs)   bands (ev):

    -2.9139   3.1614   7.4144   8.8071  20.5475  24.1057  25.5918  26.7262

          k = 0.5833-0.2500 0.7500 (  1901 PWs)   bands (ev):

    -1.4336   1.2570   7.0111   8.7088  20.9850  23.8201  26.4878  27.7180

          k = 0.5000-0.1667 0.6667 (  1906 PWs)   bands (ev):

    -1.8785   1.8087   6.6747   9.1183  21.4707  23.3175  26.3817  28.2609

          k = 0.4167-0.0833 0.5833 (  1904 PWs)   bands (ev):

    -3.4421   3.9884   6.5992   9.8431  22.0295  22.5385  25.9780  26.9770

          k = 0.3333 0.0000 0.5000 (  1913 PWs)   bands (ev):

    -4.8226   6.1278   7.1491  10.6943  21.2687  22.6543  25.0655  26.1462

          k =-0.1667 0.6667-0.0000 (  1904 PWs)   bands (ev):

    -3.8314   5.7817   7.4185   8.2112  18.6601  22.0540  26.4767  27.5046

          k = 0.7500-0.2500 0.9167 (  1903 PWs)   bands (ev):

    -2.4692   4.0944   6.4065   7.6833  19.5955  22.5379  26.4501  28.3054

          k = 0.6667-0.1667 0.8333 (  1897 PWs)   bands (ev):

    -0.9421   2.3214   5.4338   7.7110  20.1442  24.4907  26.1456  28.3491

          k = 0.5833-0.0833 0.7500 (  1899 PWs)   bands (ev):

    -0.5905   1.9983   4.7553   8.1725  20.6651  25.3233  27.0736  27.7800

          k = 0.5000 0.0000 0.6667 (  1904 PWs)   bands (ev):

    -2.0194   3.5039   4.7903   8.9351  21.3594  24.0935  26.9960  27.7850

          k = 0.8333-0.1667 1.0000 (  1911 PWs)   bands (ev):

    -1.6817   3.4082   6.7297   6.9978  18.7184  20.3079  28.4786  29.3503

          k = 0.7500-0.0833 0.9167 (  1899 PWs)   bands (ev):

    -0.2135   2.1716   5.3595   6.9673  19.5225  21.5735  28.2490  29.2818

          k = 0.6667 0.0000 0.8333 (  1893 PWs)   bands (ev):

     0.5416   1.7052   4.1701   7.4137  19.9931  24.2477  27.3365  28.4746

          k =-0.1667-1.0000-0.0000 (  1910 PWs)   bands (ev):

     0.7943   0.7943   6.5631   6.5631  19.2292  19.2292  29.7134  29.7135

          k = 0.6667-0.3333 1.0000 (  1902 PWs)   bands (ev):

    -3.1305   4.7115   6.0721   8.5833  21.1500  23.4465  24.9066  27.6010

          k = 0.5833-0.2500 0.9167 (  1898 PWs)   bands (ev):

    -1.6231   2.9577   5.5926   7.7899  22.1195  23.3859  25.6759  28.2270

          k = 0.5000-0.1667 0.8333 (  1902 PWs)   bands (ev):

    -0.5195   1.6707   5.5681   7.4562  22.2416  23.5036  27.2039  27.4484

          k = 0.6667-0.1667 1.0000 (  1893 PWs)   bands (ev):

    -1.0668   3.1993   5.4937   6.5906  21.2390  22.5476  26.1650  28.8969

          k = 0.5833-0.0833 0.9167 (  1903 PWs)   bands (ev):

     0.3098   2.0944   4.7097   6.2965  22.0638  24.2652  25.8697  27.6326

          k = 0.5000 0.0000 0.8333 (  1899 PWs)   bands (ev):

    -0.1904   2.5201   4.4212   6.8342  22.5233  24.3185  26.1114  27.2737

          k =-0.3333-1.0000 0.0000 (  1892 PWs)   bands (ev):

     1.1829   1.1829   5.5675   5.5675  21.6825  21.6825  27.9573  27.9573

          k =-0.5000-1.0000 0.0000 (  1888 PWs)   bands (ev):

     1.4332   1.4332   5.0521   5.0521  24.0709  24.0709  25.7873  25.7873

     the Fermi energy is    15.8725 ev
     (compare with:    15.8849 eV, computed in scf)

     Writing all to output data dir out/mp-66.save/
 
     init_run     :      0.03s CPU      0.34s WALL (       1 calls)
     electrons    :      1.17s CPU      3.26s WALL (       1 calls)

     Called by init_run:
     wfcinit      :      0.00s CPU      0.01s WALL (       1 calls)
     potinit      :      0.01s CPU      0.26s WALL (       1 calls)
     hinit0       :      0.00s CPU      0.06s WALL (       1 calls)

     Called by electrons:
     c_bands      :      1.17s CPU      3.26s WALL (       1 calls)
     v_of_rho     :      0.00s CPU      0.00s WALL (       1 calls)

     Called by c_bands:
     init_us_2    :      0.00s CPU      0.00s WALL (      72 calls)
     init_us_2:cp :      0.00s CPU      0.00s WALL (      72 calls)
     cegterg      :      1.08s CPU      1.15s WALL (      76 calls)

     Called by *egterg:
     cdiaghg      :      0.14s CPU      0.15s WALL (    1226 calls)
     h_psi        :      0.93s CPU      0.99s WALL (    1302 calls)
     g_psi        :      0.00s CPU      0.00s WALL (    1154 calls)

     Called by h_psi:
     h_psi:calbec :      0.02s CPU      0.03s WALL (    1302 calls)
     vloc_psi     :      0.89s CPU      0.95s WALL (    1302 calls)
     add_vuspsi   :      0.01s CPU      0.01s WALL (    1302 calls)

     General routines
     calbec       :      0.02s CPU      0.02s WALL (    1302 calls)
     fft          :      0.00s CPU      0.06s WALL (      10 calls)
     fftw         :      0.83s CPU      0.88s WALL (   16514 calls)
 
     Parallel routines
 
     PWSCF        :      1.59s CPU      6.05s WALL

 
   This run was terminated on:   9:51:57  11Apr2024            

=------------------------------------------------------------------------------=
   JOB DONE.
=------------------------------------------------------------------------------=
