 
             +---------------------------------------------------+
             |                                                   |
             |                   WANNIER90                       |
             |                                                   |
             +---------------------------------------------------+
             |                                                   |
             |        Welcome to the Maximally-Localized         |
             |        Generalized Wannier Functions code         |
             |            http://www.wannier.org                 |
             |                                                   |
             |                                                   |
             |  Wannier90 Developer Group:                       |
             |    Giovanni Pizzi    (EPFL)                       |
             |    Valerio Vitale    (Cambridge)                  |
             |    David Vanderbilt  (Rutgers University)         |
             |    Nicola Marzari    (EPFL)                       |
             |    Ivo Souza         (Universidad del Pais Vasco) |
             |    Arash A. Mostofi  (Imperial College London)    |
             |    Jonathan R. Yates (University of Oxford)       |
             |                                                   |
             |  For the full list of Wannier90 3.x authors,      |
             |  please check the code documentation and the      |
             |  README on the GitHub page of the code            |
             |                                                   |
             |                                                   |
             |  Please cite                                      |
             |                                                   |
             |  [ref] "Wannier90 as a community code:            |
             |        new features and applications",            |
             |        G. Pizzi et al., J. Phys. Cond. Matt. 32,  |
             |        165902 (2020).                             |
             |        http://doi.org/10.1088/1361-648X/ab51ff    |
             |                                                   |
             |  in any publications arising from the use of      |
             |  this code. For the method please cite            |
             |                                                   |
             |  [ref] "Maximally Localized Generalised Wannier   |
             |         Functions for Composite Energy Bands"     |
             |         N. Marzari and D. Vanderbilt              |
             |         Phys. Rev. B 56 12847 (1997)              |
             |                                                   |
             |  [ref] "Maximally Localized Wannier Functions     |
             |         for Entangled Energy Bands"               |
             |         I. Souza, N. Marzari and D. Vanderbilt    |
             |         Phys. Rev. B 65 035109 (2001)             |
             |                                                   |
             |                                                   |
             | Copyright (c) 1996-2020                           |
             |        The Wannier90 Developer Group and          |
             |        individual contributors                    |
             |                                                   |
             |      Release: 3.1.0        5th March    2020      |
             |                                                   |
             | This program is free software; you can            |
             | redistribute it and/or modify it under the terms  |
             | of the GNU General Public License as published by |
             | the Free Software Foundation; either version 2 of |
             | the License, or (at your option) any later version|
             |                                                   |
             | This program is distributed in the hope that it   |
             | will be useful, but WITHOUT ANY WARRANTY; without |
             | even the implied warranty of MERCHANTABILITY or   |
             | FITNESS FOR A PARTICULAR PURPOSE. See the GNU     |
             | General Public License for more details.          |
             |                                                   |
             | You should have received a copy of the GNU General|
             | Public License along with this program; if not,   |
             | write to the Free Software Foundation, Inc.,      |
             | 675 Mass Ave, Cambridge, MA 02139, USA.           |
             |                                                   |
             +---------------------------------------------------+
             |    Execution started on  8Apr2024 at 15:16:47     |
             +---------------------------------------------------+
 
 ******************************************************************************
 * -> Using CODATA 2006 constant values                                       *
 *    (http://physics.nist.gov/cuu/Constants/index.html)                      *
 * -> Using Bohr value from CODATA                                            *
 ******************************************************************************
 

 Running in parallel on  16 CPUs

 
                                    ------
                                    SYSTEM
                                    ------
 
                              Lattice Vectors (Ang)
                    a_1    -3.246467   0.000000   3.246467
                    a_2     0.000000   3.246467   3.246467
                    a_3    -3.246467   3.246467   0.000000
 
                   Unit Cell Volume:      68.43259  (Ang^3)
 
                        Reciprocal-Space Vectors (Ang^-1)
                    b_1    -0.967696  -0.967696   0.967696
                    b_2     0.967696   0.967696   0.967696
                    b_3    -0.967696   0.967696  -0.967696
  
 *----------------------------------------------------------------------------*
 |   Site       Fractional Coordinate          Cartesian Coordinate (Ang)     |
 +----------------------------------------------------------------------------+
 | Xe   1   0.00000   0.00000   0.00000   |    0.00000   0.00000   0.00000    |
 *----------------------------------------------------------------------------*
                                ------------
                                K-POINT GRID
                                ------------
  
             Grid size = 14 x 14 x 14      Total points = 2744
  
  
 *---------------------------------- MAIN ------------------------------------*
 |  Number of Wannier Functions               :                 3             |
 |  Number of Objective Wannier Functions     :                 3             |
 |  Number of input Bloch states              :                 3             |
 |  Output verbosity (1=low, 5=high)          :                 1             |
 |  Timing Level (1=low, 5=high)              :                 1             |
 |  Optimisation (0=memory, 3=speed)          :                 3             |
 |  Length Unit                               :               Ang             |
 |  Post-processing setup (write *.nnkp)      :                 F             |
 |  Using Gamma-only branch of algorithms     :                 F             |
 *----------------------------------------------------------------------------*
 *------------------------------- WANNIERISE ---------------------------------*
 |  Total number of iterations                :               500             |
 |  Number of CG steps before reset           :                 5             |
 |  Trial step length for line search         :             2.000             |
 |  Convergence tolerence                     :         0.100E-09             |
 |  Convergence window                        :                -1             |
 |  Iterations between writing output         :                 1             |
 |  Iterations between backing up to disk     :               100             |
 |  Write r^2_nm to file                      :                 F             |
 |  Write xyz WF centres to file              :                 F             |
 |  Write on-site energies <0n|H|0n> to file  :                 F             |
 |  Use guiding centre to control phases      :                 F             |
 |  Use phases for initial projections        :                 F             |
 *----------------------------------------------------------------------------*
 Time to read parameters        0.149 (sec)

 *---------------------------------- K-MESH ----------------------------------*
 +----------------------------------------------------------------------------+
 |                    Distance to Nearest-Neighbour Shells                    |
 |                    ------------------------------------                    |
 |          Shell             Distance (Ang^-1)          Multiplicity         |
 |          -----             -----------------          ------------         |
 |             1                   0.119721                      8            |
 |             2                   0.138242                      6            |
 |             3                   0.195504                     12            |
 |             4                   0.229249                     24            |
 |             5                   0.239443                      8            |
 |             6                   0.276485                      6            |
 |             7                   0.301292                     24            |
 |             8                   0.309119                     24            |
 |             9                   0.338623                     24            |
 |            10                   0.359164                     32            |
 |            11                   0.391008                     12            |
 |            12                   0.408926                     48            |
 |            13                   0.414727                     30            |
 |            14                   0.437160                     24            |
 |            15                   0.453258                     24            |
 |            16                   0.458498                     24            |
 |            17                   0.478885                      8            |
 |            18                   0.493624                     48            |
 |            19                   0.498440                     24            |
 |            20                   0.517255                     48            |
 |            21                   0.530929                     72            |
 |            22                   0.552969                      6            |
 |            23                   0.565781                     24            |
 |            24                   0.569987                     48            |
 |            25                   0.586512                     36            |
 |            26                   0.598607                     56            |
 |            27                   0.602584                     24            |
 |            28                   0.618238                     24            |
 |            29                   0.629723                     72            |
 |            30                   0.633506                     48            |
 |            31                   0.648414                     24            |
 |            32                   0.659374                     48            |
 |            33                   0.677246                     24            |
 |            34                   0.687747                     72            |
 |            35                   0.691211                     30            |
 |            36                   0.704900                     72            |
 +----------------------------------------------------------------------------+
 | The b-vectors are chosen automatically                                     |
 | The following shells are used:   1                                         |
 +----------------------------------------------------------------------------+
 |                        Shell   # Nearest-Neighbours                        |
 |                        -----   --------------------                        |
 |                          1               8                                 |
 +----------------------------------------------------------------------------+
 | Completeness relation is fully satisfied [Eq. (B1), PRB 56, 12847 (1997)]  |
 +----------------------------------------------------------------------------+
 |                  b_k Vectors (Ang^-1) and Weights (Ang^2)                  |
 |                  ----------------------------------------                  |
 |            No.         b_k(x)      b_k(y)      b_k(z)        w_b           |
 |            ---        --------------------------------     --------        |
 |             1        -0.069121    0.069121   -0.069121    26.163048        |
 |             2         0.069121    0.069121    0.069121    26.163048        |
 |             3        -0.069121   -0.069121    0.069121    26.163048        |
 |             4        -0.069121    0.069121    0.069121    26.163048        |
 |             5         0.069121   -0.069121    0.069121    26.163048        |
 |             6        -0.069121   -0.069121   -0.069121    26.163048        |
 |             7         0.069121    0.069121   -0.069121    26.163048        |
 |             8         0.069121   -0.069121   -0.069121    26.163048        |
 +----------------------------------------------------------------------------+
 |                           b_k Directions (Ang^-1)                          |
 |                           -----------------------                          |
 |            No.           x           y           z                         |
 |            ---        --------------------------------                     |
 |             1        -0.069121    0.069121   -0.069121                     |
 |             2         0.069121    0.069121    0.069121                     |
 |             3        -0.069121   -0.069121    0.069121                     |
 |             4        -0.069121    0.069121    0.069121                     |
 +----------------------------------------------------------------------------+
  
 Time to get kmesh              1.083 (sec)
 *============================================================================*
 |                              MEMORY ESTIMATE                               |
 |         Maximum RAM allocated during each phase of the calculation         |
 *============================================================================*
 |                            Wannierise:           11.12 Mb                  |
 |                          plot_wannier:           11.12 Mb                  |
 *----------------------------------------------------------------------------*
  
 Starting a new Wannier90 calculation ...


 Reading overlaps from mp-611517.mmn    :  Created on  8Apr2024 at 15:16:37

 Reading projections from mp-611517.amn :  Created on  8Apr2024 at 15:16:35  with SCDM

 Time to read overlaps          0.136 (sec)

 Writing checkpoint file mp-611517.chk... done

 
 *------------------------------- WANNIERISE ---------------------------------*
 +--------------------------------------------------------------------+<-- CONV
 | Iter  Delta Spread     RMS Gradient      Spread (Ang^2)      Time  |<-- CONV
 +--------------------------------------------------------------------+<-- CONV
 
 ------------------------------------------------------------------------------
 Initial State
  WF centre and spread    1  (  0.000152, -0.000446, -0.000211 )     1.76370822
  WF centre and spread    2  ( -0.000390,  0.000219, -0.000120 )     1.76428627
  WF centre and spread    3  (  0.000171,  0.000168,  0.000399 )     1.76431856
  Sum of centres and spreads ( -0.000067, -0.000059,  0.000068 )     5.29231305
 
      0     0.529E+01     0.0000000000        5.2923130528       0.00  <-- CONV
        O_D=      0.0197123 O_OD=      0.0274524 O_TOT=      5.2923131 <-- SPRD
 ------------------------------------------------------------------------------
 Cycle:      1
  WF centre and spread    1  (  0.000005, -0.000014, -0.000007 )     1.75073217
  WF centre and spread    2  ( -0.000013,  0.000007, -0.000005 )     1.75074088
  WF centre and spread    3  (  0.000006,  0.000005,  0.000014 )     1.75076314
  Sum of centres and spreads ( -0.000002, -0.000002,  0.000002 )     5.25223619
 
      1    -0.401E-01     0.0354114022        5.2522361903       0.01  <-- CONV
        O_D=      0.0005372 O_OD=      0.0065506 O_TOT=      5.2522362 <-- SPRD
 Delta: O_D= -0.1917501E-01 O_OD= -0.2090185E-01 O_TOT= -0.4007686E-01 <-- DLTA
 ------------------------------------------------------------------------------
 Cycle:      2
  WF centre and spread    1  (  0.000003, -0.000009, -0.000004 )     1.75054593
  WF centre and spread    2  ( -0.000008,  0.000005, -0.000003 )     1.75054711
  WF centre and spread    3  (  0.000004,  0.000003,  0.000008 )     1.75057108
  Sum of centres and spreads ( -0.000001, -0.000001,  0.000001 )     5.25166411
 
      2    -0.572E-03     0.0155726611        5.2516641099       0.02  <-- CONV
        O_D=      0.0003136 O_OD=      0.0062021 O_TOT=      5.2516641 <-- SPRD
 Delta: O_D= -0.2236130E-03 O_OD= -0.3484674E-03 O_TOT= -0.5720804E-03 <-- DLTA
 ------------------------------------------------------------------------------
 Cycle:      3
  WF centre and spread    1  (  0.000001, -0.000003, -0.000001 )     1.75035074
  WF centre and spread    2  ( -0.000003,  0.000002, -0.000001 )     1.75034662
  WF centre and spread    3  (  0.000002,  0.000001,  0.000003 )     1.75036796
  Sum of centres and spreads ( -0.000001, -0.000000,  0.000001 )     5.25106532
 
      3    -0.599E-03     0.0139016599        5.2510653191       0.03  <-- CONV
        O_D=      0.0000809 O_OD=      0.0058361 O_TOT=      5.2510653 <-- SPRD
 Delta: O_D= -0.2327373E-03 O_OD= -0.3660535E-03 O_TOT= -0.5987908E-03 <-- DLTA
 ------------------------------------------------------------------------------
 Cycle:      4
  WF centre and spread    1  (  0.000000, -0.000002, -0.000001 )     1.75029861
  WF centre and spread    2  ( -0.000002,  0.000001, -0.000001 )     1.75029373
  WF centre and spread    3  (  0.000001,  0.000001,  0.000002 )     1.75031507
  Sum of centres and spreads ( -0.000000, -0.000000,  0.000000 )     5.25090740
 
      4    -0.158E-03     0.0098151903        5.2509074009       0.03  <-- CONV
        O_D=      0.0000219 O_OD=      0.0057371 O_TOT=      5.2509074 <-- SPRD
 Delta: O_D= -0.5894370E-04 O_OD= -0.9897454E-04 O_TOT= -0.1579182E-03 <-- DLTA
 ------------------------------------------------------------------------------
 Cycle:      5
  WF centre and spread    1  (  0.000000, -0.000001, -0.000001 )     1.75028903
  WF centre and spread    2  ( -0.000001,  0.000001, -0.000000 )     1.75028397
  WF centre and spread    3  (  0.000001,  0.000000,  0.000001 )     1.75030527
  Sum of centres and spreads ( -0.000000, -0.000000,  0.000000 )     5.25087827
 
      5    -0.291E-04     0.0039138925        5.2508782687       0.04  <-- CONV
        O_D=      0.0000096 O_OD=      0.0057203 O_TOT=      5.2508783 <-- SPRD
 Delta: O_D= -0.1238540E-04 O_OD= -0.1674674E-04 O_TOT= -0.2913214E-04 <-- DLTA
 ------------------------------------------------------------------------------
 Cycle:      6
  WF centre and spread    1  (  0.000000, -0.000001, -0.000000 )     1.75028428
  WF centre and spread    2  ( -0.000001,  0.000001, -0.000000 )     1.75027904
  WF centre and spread    3  (  0.000000,  0.000000,  0.000001 )     1.75030036
  Sum of centres and spreads ( -0.000000, -0.000000,  0.000000 )     5.25086367
 
      6    -0.146E-04     0.0024362621        5.2508636747       0.05  <-- CONV
        O_D=      0.0000030 O_OD=      0.0057123 O_TOT=      5.2508637 <-- SPRD
 Delta: O_D= -0.6531301E-05 O_OD= -0.8062702E-05 O_TOT= -0.1459400E-04 <-- DLTA
 ------------------------------------------------------------------------------
 Cycle:      7
  WF centre and spread    1  (  0.000000, -0.000001, -0.000000 )     1.75028323
  WF centre and spread    2  ( -0.000001,  0.000001, -0.000000 )     1.75027798
  WF centre and spread    3  (  0.000000,  0.000000,  0.000001 )     1.75029929
  Sum of centres and spreads ( -0.000000, -0.000000,  0.000000 )     5.25086049
 
      7    -0.318E-05     0.0014975415        5.2508604911       0.06  <-- CONV
        O_D=      0.0000018 O_OD=      0.0057103 O_TOT=      5.2508605 <-- SPRD
 Delta: O_D= -0.1228096E-05 O_OD= -0.1955516E-05 O_TOT= -0.3183612E-05 <-- DLTA
 ------------------------------------------------------------------------------
 Cycle:      8
  WF centre and spread    1  (  0.000000, -0.000001, -0.000000 )     1.75028258
  WF centre and spread    2  ( -0.000001,  0.000000, -0.000000 )     1.75027732
  WF centre and spread    3  (  0.000000,  0.000000,  0.000001 )     1.75029865
  Sum of centres and spreads ( -0.000000, -0.000000,  0.000000 )     5.25085855
 
      8    -0.194E-05     0.0008269131        5.2508585512       0.06  <-- CONV
        O_D=      0.0000010 O_OD=      0.0057092 O_TOT=      5.2508586 <-- SPRD
 Delta: O_D= -0.8155115E-06 O_OD= -0.1124399E-05 O_TOT= -0.1939911E-05 <-- DLTA
 ------------------------------------------------------------------------------
 Cycle:      9
  WF centre and spread    1  (  0.000000, -0.000001, -0.000000 )     1.75028201
  WF centre and spread    2  ( -0.000001,  0.000000, -0.000000 )     1.75027675
  WF centre and spread    3  (  0.000000,  0.000000,  0.000001 )     1.75029811
  Sum of centres and spreads ( -0.000000, -0.000000,  0.000000 )     5.25085687
 
      9    -0.168E-05     0.0007567568        5.2508568692       0.07  <-- CONV
        O_D=      0.0000004 O_OD=      0.0057081 O_TOT=      5.2508569 <-- SPRD
 Delta: O_D= -0.5943292E-06 O_OD= -0.1087636E-05 O_TOT= -0.1681966E-05 <-- DLTA
 ------------------------------------------------------------------------------
 Cycle:     10
  WF centre and spread    1  (  0.000000, -0.000001, -0.000000 )     1.75028178
  WF centre and spread    2  ( -0.000001,  0.000000, -0.000000 )     1.75027654
  WF centre and spread    3  (  0.000000,  0.000000,  0.000001 )     1.75029791
  Sum of centres and spreads ( -0.000000, -0.000000,  0.000000 )     5.25085623
 
     10    -0.643E-06     0.0005676843        5.2508562264       0.08  <-- CONV
        O_D=      0.0000002 O_OD=      0.0057077 O_TOT=      5.2508562 <-- SPRD
 Delta: O_D= -0.2021736E-06 O_OD= -0.4406689E-06 O_TOT= -0.6428424E-06 <-- DLTA
 ------------------------------------------------------------------------------
 Cycle:     11
  WF centre and spread    1  (  0.000000, -0.000001, -0.000000 )     1.75028171
  WF centre and spread    2  ( -0.000001,  0.000000, -0.000000 )     1.75027647
  WF centre and spread    3  (  0.000000,  0.000000,  0.000001 )     1.75029784
  Sum of centres and spreads ( -0.000000, -0.000000,  0.000000 )     5.25085602
 
     11    -0.209E-06     0.0003087848        5.2508560175       0.08  <-- CONV
        O_D=      0.0000001 O_OD=      0.0057075 O_TOT=      5.2508560 <-- SPRD
 Delta: O_D= -0.7375404E-07 O_OD= -0.1351565E-06 O_TOT= -0.2089106E-06 <-- DLTA
 ------------------------------------------------------------------------------
 Cycle:     12
  WF centre and spread    1  (  0.000000, -0.000001, -0.000000 )     1.75028166
  WF centre and spread    2  ( -0.000001,  0.000000, -0.000000 )     1.75027642
  WF centre and spread    3  (  0.000000,  0.000000,  0.000001 )     1.75029780
  Sum of centres and spreads ( -0.000000, -0.000000,  0.000000 )     5.25085588
 
     12    -0.141E-06     0.0002241357        5.2508558769       0.09  <-- CONV
        O_D=      0.0000001 O_OD=      0.0057074 O_TOT=      5.2508559 <-- SPRD
 Delta: O_D= -0.5012944E-07 O_OD= -0.9041373E-07 O_TOT= -0.1405432E-06 <-- DLTA
 ------------------------------------------------------------------------------
 Cycle:     13
  WF centre and spread    1  (  0.000000, -0.000001, -0.000000 )     1.75028164
  WF centre and spread    2  ( -0.000001,  0.000000, -0.000000 )     1.75027641
  WF centre and spread    3  (  0.000000,  0.000000,  0.000001 )     1.75029779
  Sum of centres and spreads ( -0.000000, -0.000000,  0.000000 )     5.25085584
 
     13    -0.417E-07     0.0001536987        5.2508558353       0.10  <-- CONV
        O_D=      0.0000000 O_OD=      0.0057074 O_TOT=      5.2508558 <-- SPRD
 Delta: O_D= -0.1694883E-07 O_OD= -0.2472447E-07 O_TOT= -0.4167330E-07 <-- DLTA
 ------------------------------------------------------------------------------
 Cycle:     14
  WF centre and spread    1  (  0.000000, -0.000000, -0.000000 )     1.75028163
  WF centre and spread    2  ( -0.000000,  0.000000, -0.000000 )     1.75027640
  WF centre and spread    3  (  0.000000,  0.000000,  0.000001 )     1.75029778
  Sum of centres and spreads ( -0.000000, -0.000000,  0.000000 )     5.25085581
 
     14    -0.301E-07     0.0001062114        5.2508558051       0.10  <-- CONV
        O_D=      0.0000000 O_OD=      0.0057074 O_TOT=      5.2508558 <-- SPRD
 Delta: O_D= -0.1380707E-07 O_OD= -0.1631469E-07 O_TOT= -0.3012176E-07 <-- DLTA
 ------------------------------------------------------------------------------
 Cycle:     15
  WF centre and spread    1  (  0.000000, -0.000000, -0.000000 )     1.75028162
  WF centre and spread    2  ( -0.000000,  0.000000, -0.000000 )     1.75027639
  WF centre and spread    3  (  0.000000,  0.000000,  0.000000 )     1.75029777
  Sum of centres and spreads ( -0.000000, -0.000000,  0.000000 )     5.25085577
 
     15    -0.321E-07     0.0000898495        5.2508557730       0.11  <-- CONV
        O_D=      0.0000000 O_OD=      0.0057074 O_TOT=      5.2508558 <-- SPRD
 Delta: O_D= -0.1406271E-07 O_OD= -0.1803120E-07 O_TOT= -0.3209390E-07 <-- DLTA
 ------------------------------------------------------------------------------
 Cycle:     16
  WF centre and spread    1  (  0.000000, -0.000000, -0.000000 )     1.75028160
  WF centre and spread    2  ( -0.000000,  0.000000, -0.000000 )     1.75027638
  WF centre and spread    3  (  0.000000,  0.000000,  0.000000 )     1.75029776
  Sum of centres and spreads (  0.000000, -0.000000,  0.000000 )     5.25085575
 
     16    -0.246E-07     0.0000893984        5.2508557485       0.11  <-- CONV
        O_D=      0.0000000 O_OD=      0.0057074 O_TOT=      5.2508557 <-- SPRD
 Delta: O_D= -0.1000090E-07 O_OD= -0.1455040E-07 O_TOT= -0.2455130E-07 <-- DLTA
 ------------------------------------------------------------------------------
 Cycle:     17
  WF centre and spread    1  (  0.000000, -0.000000, -0.000000 )     1.75028160
  WF centre and spread    2  ( -0.000000,  0.000000, -0.000000 )     1.75027638
  WF centre and spread    3  (  0.000000,  0.000000,  0.000000 )     1.75029776
  Sum of centres and spreads (  0.000000,  0.000000,  0.000000 )     5.25085574
 
     17    -0.111E-07     0.0000725296        5.2508557374       0.12  <-- CONV
        O_D=      0.0000000 O_OD=      0.0057074 O_TOT=      5.2508557 <-- SPRD
 Delta: O_D= -0.3890370E-08 O_OD= -0.7187944E-08 O_TOT= -0.1107831E-07 <-- DLTA
 ------------------------------------------------------------------------------
 Cycle:     18
  WF centre and spread    1  (  0.000000, -0.000000, -0.000000 )     1.75028160
  WF centre and spread    2  ( -0.000000,  0.000000, -0.000000 )     1.75027637
  WF centre and spread    3  (  0.000000,  0.000000,  0.000000 )     1.75029776
  Sum of centres and spreads (  0.000000,  0.000000,  0.000000 )     5.25085573
 
     18    -0.829E-08     0.0000558138        5.2508557291       0.12  <-- CONV
        O_D=      0.0000000 O_OD=      0.0057074 O_TOT=      5.2508557 <-- SPRD
 Delta: O_D= -0.2690180E-08 O_OD= -0.5598895E-08 O_TOT= -0.8289074E-08 <-- DLTA
 ------------------------------------------------------------------------------
 Cycle:     19
  WF centre and spread    1  (  0.000000, -0.000000, -0.000000 )     1.75028160
  WF centre and spread    2  ( -0.000000,  0.000000, -0.000000 )     1.75027637
  WF centre and spread    3  (  0.000000,  0.000000,  0.000000 )     1.75029776
  Sum of centres and spreads (  0.000000,  0.000000,  0.000000 )     5.25085572
 
     19    -0.474E-08     0.0000497022        5.2508557244       0.13  <-- CONV
        O_D=      0.0000000 O_OD=      0.0057074 O_TOT=      5.2508557 <-- SPRD
 Delta: O_D= -0.1723398E-08 O_OD= -0.3012982E-08 O_TOT= -0.4736380E-08 <-- DLTA
 ------------------------------------------------------------------------------
 Cycle:     20
  WF centre and spread    1  (  0.000000, -0.000000, -0.000000 )     1.75028160
  WF centre and spread    2  ( -0.000000,  0.000000, -0.000000 )     1.75027637
  WF centre and spread    3  (  0.000000,  0.000000,  0.000000 )     1.75029776
  Sum of centres and spreads (  0.000000,  0.000000,  0.000000 )     5.25085572
 
     20    -0.312E-11     0.0000349809        5.2508557244       0.13  <-- CONV
        O_D=      0.0000000 O_OD=      0.0057074 O_TOT=      5.2508557 <-- SPRD
 Delta: O_D= -0.1175500E-11 O_OD= -0.1946710E-11 O_TOT= -0.3121947E-11 <-- DLTA
 ------------------------------------------------------------------------------
 Cycle:     21
  WF centre and spread    1  (  0.000000, -0.000000, -0.000000 )     1.75028160
  WF centre and spread    2  ( -0.000000,  0.000000, -0.000000 )     1.75027637
  WF centre and spread    3  (  0.000000,  0.000000,  0.000000 )     1.75029775
  Sum of centres and spreads (  0.000000,  0.000000,  0.000000 )     5.25085572
 
     21    -0.362E-08     0.0000349691        5.2508557208       0.13  <-- CONV
        O_D=      0.0000000 O_OD=      0.0057074 O_TOT=      5.2508557 <-- SPRD
 Delta: O_D= -0.8986008E-09 O_OD= -0.2725642E-08 O_TOT= -0.3624243E-08 <-- DLTA
 ------------------------------------------------------------------------------
 Cycle:     22
  WF centre and spread    1  (  0.000000, -0.000000, -0.000000 )     1.75028160
  WF centre and spread    2  ( -0.000000,  0.000000, -0.000000 )     1.75027637
  WF centre and spread    3  (  0.000000,  0.000000,  0.000000 )     1.75029775
  Sum of centres and spreads (  0.000000,  0.000000,  0.000000 )     5.25085572
 
     22    -0.868E-09     0.0000486499        5.2508557199       0.14  <-- CONV
        O_D=      0.0000000 O_OD=      0.0057074 O_TOT=      5.2508557 <-- SPRD
 Delta: O_D=  0.6945990E-10 O_OD= -0.9376835E-09 O_TOT= -0.8682237E-09 <-- DLTA
 ------------------------------------------------------------------------------
 Cycle:     23
  WF centre and spread    1  (  0.000000, -0.000000, -0.000000 )     1.75028160
  WF centre and spread    2  ( -0.000000,  0.000000, -0.000000 )     1.75027637
  WF centre and spread    3  (  0.000000,  0.000000,  0.000000 )     1.75029775
  Sum of centres and spreads (  0.000000,  0.000000,  0.000000 )     5.25085572
 
     23    -0.322E-08     0.0000602490        5.2508557167       0.14  <-- CONV
        O_D=      0.0000000 O_OD=      0.0057073 O_TOT=      5.2508557 <-- SPRD
 Delta: O_D= -0.3138211E-13 O_OD= -0.3216700E-08 O_TOT= -0.3216731E-08 <-- DLTA
 ------------------------------------------------------------------------------
 Cycle:     24
  WF centre and spread    1  (  0.000000, -0.000000, -0.000000 )     1.75028160
  WF centre and spread    2  ( -0.000000,  0.000000, -0.000000 )     1.75027636
  WF centre and spread    3  (  0.000000,  0.000000,  0.000000 )     1.75029775
  Sum of centres and spreads (  0.000000,  0.000000,  0.000000 )     5.25085572
 
     24    -0.124E-08     0.0000493587        5.2508557154       0.15  <-- CONV
        O_D=      0.0000000 O_OD=      0.0057073 O_TOT=      5.2508557 <-- SPRD
 Delta: O_D=  0.5930008E-09 O_OD= -0.1829869E-08 O_TOT= -0.1236869E-08 <-- DLTA
 ------------------------------------------------------------------------------
 Cycle:     25
  WF centre and spread    1  (  0.000000, -0.000000, -0.000000 )     1.75028160
  WF centre and spread    2  ( -0.000000,  0.000000, -0.000000 )     1.75027636
  WF centre and spread    3  (  0.000000,  0.000000,  0.000000 )     1.75029775
  Sum of centres and spreads (  0.000000,  0.000000,  0.000000 )     5.25085572
 
     25    -0.410E-11     0.0000414257        5.2508557154       0.15  <-- CONV
        O_D=      0.0000000 O_OD=      0.0057073 O_TOT=      5.2508557 <-- SPRD
 Delta: O_D= -0.1647256E-11 O_OD= -0.2451307E-11 O_TOT= -0.4098943E-11 <-- DLTA
 ------------------------------------------------------------------------------
 Cycle:     26
  WF centre and spread    1  (  0.000000, -0.000000, -0.000000 )     1.75028160
  WF centre and spread    2  ( -0.000000,  0.000000, -0.000000 )     1.75027636
  WF centre and spread    3  (  0.000000,  0.000000,  0.000000 )     1.75029775
  Sum of centres and spreads (  0.000000,  0.000000,  0.000000 )     5.25085571
 
     26    -0.441E-08     0.0000414066        5.2508557110       0.15  <-- CONV
        O_D=      0.0000000 O_OD=      0.0057073 O_TOT=      5.2508557 <-- SPRD
 Delta: O_D= -0.1459225E-08 O_OD= -0.2952710E-08 O_TOT= -0.4411934E-08 <-- DLTA
 ------------------------------------------------------------------------------
 Cycle:     27
  WF centre and spread    1  (  0.000000,  0.000000, -0.000000 )     1.75028160
  WF centre and spread    2  (  0.000000,  0.000000, -0.000000 )     1.75027636
  WF centre and spread    3  (  0.000000,  0.000000,  0.000000 )     1.75029775
  Sum of centres and spreads (  0.000000,  0.000000,  0.000000 )     5.25085571
 
     27    -0.203E-08     0.0000334742        5.2508557090       0.16  <-- CONV
        O_D=      0.0000000 O_OD=      0.0057073 O_TOT=      5.2508557 <-- SPRD
 Delta: O_D= -0.4877280E-09 O_OD= -0.1545528E-08 O_TOT= -0.2033256E-08 <-- DLTA
 ------------------------------------------------------------------------------
 Cycle:     28
  WF centre and spread    1  (  0.000000,  0.000000, -0.000000 )     1.75028160
  WF centre and spread    2  (  0.000000,  0.000000, -0.000000 )     1.75027636
  WF centre and spread    3  (  0.000000,  0.000000,  0.000000 )     1.75029775
  Sum of centres and spreads (  0.000000,  0.000000,  0.000000 )     5.25085571
 
     28    -0.111E-08     0.0000325070        5.2508557079       0.16  <-- CONV
        O_D=      0.0000000 O_OD=      0.0057073 O_TOT=      5.2508557 <-- SPRD
 Delta: O_D= -0.5349649E-10 O_OD= -0.1057403E-08 O_TOT= -0.1110900E-08 <-- DLTA
 ------------------------------------------------------------------------------
 Cycle:     29
  WF centre and spread    1  (  0.000000,  0.000000, -0.000000 )     1.75028160
  WF centre and spread    2  (  0.000000,  0.000000, -0.000000 )     1.75027636
  WF centre and spread    3  (  0.000000,  0.000000,  0.000000 )     1.75029775
  Sum of centres and spreads (  0.000000,  0.000000,  0.000000 )     5.25085571
 
     29    -0.184E-08     0.0000297331        5.2508557060       0.17  <-- CONV
        O_D=      0.0000000 O_OD=      0.0057073 O_TOT=      5.2508557 <-- SPRD
 Delta: O_D=  0.6517633E-10 O_OD= -0.1901602E-08 O_TOT= -0.1836426E-08 <-- DLTA
 ------------------------------------------------------------------------------
 Cycle:     30
  WF centre and spread    1  (  0.000000,  0.000000, -0.000000 )     1.75028160
  WF centre and spread    2  (  0.000000,  0.000000, -0.000000 )     1.75027636
  WF centre and spread    3  (  0.000000,  0.000000,  0.000000 )     1.75029775
  Sum of centres and spreads (  0.000000,  0.000000,  0.000000 )     5.25085570
 
     30    -0.259E-08     0.0000354657        5.2508557035       0.17  <-- CONV
        O_D=      0.0000000 O_OD=      0.0057073 O_TOT=      5.2508557 <-- SPRD
 Delta: O_D=  0.5282708E-10 O_OD= -0.2646811E-08 O_TOT= -0.2593984E-08 <-- DLTA
 ------------------------------------------------------------------------------
 Cycle:     31
  WF centre and spread    1  (  0.000000,  0.000000, -0.000000 )     1.75028159
  WF centre and spread    2  (  0.000000,  0.000000, -0.000000 )     1.75027636
  WF centre and spread    3  (  0.000000,  0.000000,  0.000000 )     1.75029775
  Sum of centres and spreads (  0.000000,  0.000000,  0.000000 )     5.25085570
 
     31    -0.225E-08     0.0000388172        5.2508557012       0.17  <-- CONV
        O_D=      0.0000000 O_OD=      0.0057073 O_TOT=      5.2508557 <-- SPRD
 Delta: O_D= -0.6373015E-09 O_OD= -0.1614617E-08 O_TOT= -0.2251918E-08 <-- DLTA
 ------------------------------------------------------------------------------
 Cycle:     32
  WF centre and spread    1  (  0.000000,  0.000000, -0.000000 )     1.75028159
  WF centre and spread    2  (  0.000000,  0.000000, -0.000000 )     1.75027636
  WF centre and spread    3  (  0.000000,  0.000000,  0.000000 )     1.75029775
  Sum of centres and spreads (  0.000000,  0.000000,  0.000000 )     5.25085570
 
     32    -0.101E-11     0.0000202697        5.2508557012       0.18  <-- CONV
        O_D=      0.0000000 O_OD=      0.0057073 O_TOT=      5.2508557 <-- SPRD
 Delta: O_D= -0.1840257E-12 O_OD= -0.8244733E-12 O_TOT= -0.1008083E-11 <-- DLTA
 ------------------------------------------------------------------------------
 Cycle:     33
  WF centre and spread    1  (  0.000000,  0.000000, -0.000000 )     1.75028159
  WF centre and spread    2  (  0.000000,  0.000000, -0.000000 )     1.75027636
  WF centre and spread    3  (  0.000000,  0.000000,  0.000000 )     1.75029775
  Sum of centres and spreads (  0.000000,  0.000000,  0.000000 )     5.25085570
 
     33    -0.199E-11     0.0000202665        5.2508557012       0.18  <-- CONV
        O_D=      0.0000000 O_OD=      0.0057073 O_TOT=      5.2508557 <-- SPRD
 Delta: O_D= -0.3981587E-12 O_OD= -0.1590703E-11 O_TOT= -0.1989520E-11 <-- DLTA
 ------------------------------------------------------------------------------
 Cycle:     34
  WF centre and spread    1  (  0.000000,  0.000000, -0.000000 )     1.75028159
  WF centre and spread    2  (  0.000000,  0.000000, -0.000000 )     1.75027636
  WF centre and spread    3  (  0.000000,  0.000000,  0.000000 )     1.75029775
  Sum of centres and spreads (  0.000000,  0.000000,  0.000000 )     5.25085570
 
     34    -0.297E-11     0.0000202559        5.2508557012       0.18  <-- CONV
        O_D=      0.0000000 O_OD=      0.0057073 O_TOT=      5.2508557 <-- SPRD
 Delta: O_D= -0.6110387E-12 O_OD= -0.2354385E-11 O_TOT= -0.2965628E-11 <-- DLTA
 ------------------------------------------------------------------------------
 Cycle:     35
  WF centre and spread    1  (  0.000000,  0.000000, -0.000000 )     1.75028159
  WF centre and spread    2  (  0.000000,  0.000000, -0.000000 )     1.75027636
  WF centre and spread    3  (  0.000000,  0.000000,  0.000000 )     1.75029775
  Sum of centres and spreads (  0.000000,  0.000000,  0.000000 )     5.25085570
 
     35    -0.181E-08     0.0000202382        5.2508556994       0.18  <-- CONV
        O_D=      0.0000000 O_OD=      0.0057073 O_TOT=      5.2508557 <-- SPRD
 Delta: O_D=  0.7519882E-10 O_OD= -0.1889246E-08 O_TOT= -0.1814047E-08 <-- DLTA
 ------------------------------------------------------------------------------
 Cycle:     36
  WF centre and spread    1  (  0.000000,  0.000000, -0.000000 )     1.75028159
  WF centre and spread    2  (  0.000000,  0.000000, -0.000000 )     1.75027636
  WF centre and spread    3  (  0.000000,  0.000000,  0.000000 )     1.75029775
  Sum of centres and spreads (  0.000000,  0.000000,  0.000000 )     5.25085570
 
     36    -0.129E-09     0.0000323826        5.2508556993       0.19  <-- CONV
        O_D=      0.0000000 O_OD=      0.0057073 O_TOT=      5.2508557 <-- SPRD
 Delta: O_D=  0.2380933E-09 O_OD= -0.3668532E-09 O_TOT= -0.1287601E-09 <-- DLTA
 ------------------------------------------------------------------------------
 Cycle:     37
  WF centre and spread    1  (  0.000000,  0.000000, -0.000000 )     1.75028159
  WF centre and spread    2  (  0.000000,  0.000000,  0.000000 )     1.75027636
  WF centre and spread    3  (  0.000000,  0.000000,  0.000000 )     1.75029775
  Sum of centres and spreads (  0.000000,  0.000000,  0.000000 )     5.25085570
 
     37    -0.176E-08     0.0000400244        5.2508556975       0.19  <-- CONV
        O_D=      0.0000000 O_OD=      0.0057073 O_TOT=      5.2508557 <-- SPRD
 Delta: O_D= -0.6154924E-09 O_OD= -0.1142771E-08 O_TOT= -0.1758263E-08 <-- DLTA
 ------------------------------------------------------------------------------
 Cycle:     38
  WF centre and spread    1  (  0.000000,  0.000000, -0.000000 )     1.75028159
  WF centre and spread    2  (  0.000000,  0.000000,  0.000000 )     1.75027636
  WF centre and spread    3  (  0.000000,  0.000000,  0.000000 )     1.75029775
  Sum of centres and spreads (  0.000000,  0.000000,  0.000000 )     5.25085570
 
     38    -0.668E-12     0.0000157089        5.2508556975       0.19  <-- CONV
        O_D=      0.0000000 O_OD=      0.0057073 O_TOT=      5.2508557 <-- SPRD
 Delta: O_D= -0.5901665E-13 O_OD= -0.6093182E-12 O_TOT= -0.6679102E-12 <-- DLTA
 ------------------------------------------------------------------------------
 Cycle:     39
  WF centre and spread    1  (  0.000000,  0.000000, -0.000000 )     1.75028159
  WF centre and spread    2  (  0.000000,  0.000000,  0.000000 )     1.75027636
  WF centre and spread    3  (  0.000000,  0.000000,  0.000000 )     1.75029775
  Sum of centres and spreads (  0.000000,  0.000000,  0.000000 )     5.25085570
 
     39    -0.126E-11     0.0000157065        5.2508556975       0.20  <-- CONV
        O_D=      0.0000000 O_OD=      0.0057073 O_TOT=      5.2508557 <-- SPRD
 Delta: O_D= -0.1250428E-12 O_OD= -0.1132071E-11 O_TOT= -0.1257661E-11 <-- DLTA
 ------------------------------------------------------------------------------
 Cycle:     40
  WF centre and spread    1  (  0.000000,  0.000000, -0.000000 )     1.75028159
  WF centre and spread    2  (  0.000000,  0.000000,  0.000000 )     1.75027636
  WF centre and spread    3  (  0.000000,  0.000000,  0.000000 )     1.75029775
  Sum of centres and spreads (  0.000000,  0.000000,  0.000000 )     5.25085570
 
     40    -0.184E-11     0.0000157013        5.2508556975       0.20  <-- CONV
        O_D=      0.0000000 O_OD=      0.0057073 O_TOT=      5.2508557 <-- SPRD
 Delta: O_D= -0.1906174E-12 O_OD= -0.1653896E-11 O_TOT= -0.1844747E-11 <-- DLTA
 ------------------------------------------------------------------------------
 Cycle:     41
  WF centre and spread    1  (  0.000000,  0.000000, -0.000000 )     1.75028159
  WF centre and spread    2  (  0.000000,  0.000000,  0.000000 )     1.75027636
  WF centre and spread    3  (  0.000000,  0.000000,  0.000000 )     1.75029775
  Sum of centres and spreads (  0.000000,  0.000000,  0.000000 )     5.25085570
 
     41    -0.154E-08     0.0000156933        5.2508556960       0.20  <-- CONV
        O_D=      0.0000000 O_OD=      0.0057073 O_TOT=      5.2508557 <-- SPRD
 Delta: O_D=  0.1140871E-09 O_OD= -0.1655650E-08 O_TOT= -0.1541562E-08 <-- DLTA
 ------------------------------------------------------------------------------
 Cycle:     42
  WF centre and spread    1  (  0.000000,  0.000000, -0.000000 )     1.75028159
  WF centre and spread    2  (  0.000000,  0.000000,  0.000000 )     1.75027636
  WF centre and spread    3  (  0.000000,  0.000000,  0.000000 )     1.75029775
  Sum of centres and spreads (  0.000000,  0.000000,  0.000000 )     5.25085570
 
     42    -0.322E-11     0.0000231249        5.2508556959       0.20  <-- CONV
        O_D=      0.0000000 O_OD=      0.0057073 O_TOT=      5.2508557 <-- SPRD
 Delta: O_D=  0.6628948E-12 O_OD= -0.3881530E-11 O_TOT= -0.3219647E-11 <-- DLTA
 ------------------------------------------------------------------------------
 Cycle:     43
  WF centre and spread    1  (  0.000000,  0.000000, -0.000000 )     1.75028159
  WF centre and spread    2  (  0.000000,  0.000000,  0.000000 )     1.75027636
  WF centre and spread    3  (  0.000000,  0.000000,  0.000000 )     1.75029775
  Sum of centres and spreads (  0.000000,  0.000000,  0.000000 )     5.25085570
 
     43    -0.449E-09     0.0000231524        5.2508556955       0.21  <-- CONV
        O_D=      0.0000000 O_OD=      0.0057073 O_TOT=      5.2508557 <-- SPRD
 Delta: O_D= -0.1311349E-09 O_OD= -0.3176758E-09 O_TOT= -0.4488108E-09 <-- DLTA
 ------------------------------------------------------------------------------
 Cycle:     44
  WF centre and spread    1  (  0.000000,  0.000000, -0.000000 )     1.75028159
  WF centre and spread    2  (  0.000000,  0.000000,  0.000000 )     1.75027636
  WF centre and spread    3  (  0.000000,  0.000000,  0.000000 )     1.75029775
  Sum of centres and spreads (  0.000000,  0.000000,  0.000000 )     5.25085570
 
     44    -0.349E-09     0.0000168431        5.2508556951       0.21  <-- CONV
        O_D=      0.0000000 O_OD=      0.0057073 O_TOT=      5.2508557 <-- SPRD
 Delta: O_D= -0.3903221E-10 O_OD= -0.3096662E-09 O_TOT= -0.3486980E-09 <-- DLTA
 ------------------------------------------------------------------------------
 Cycle:     45
  WF centre and spread    1  (  0.000000,  0.000000, -0.000000 )     1.75028159
  WF centre and spread    2  (  0.000000,  0.000000,  0.000000 )     1.75027636
  WF centre and spread    3  (  0.000000,  0.000000,  0.000000 )     1.75029775
  Sum of centres and spreads (  0.000000,  0.000000,  0.000000 )     5.25085570
 
     45    -0.104E-11     0.0000142581        5.2508556951       0.21  <-- CONV
        O_D=      0.0000000 O_OD=      0.0057073 O_TOT=      5.2508557 <-- SPRD
 Delta: O_D= -0.1807209E-13 O_OD= -0.1021362E-11 O_TOT= -0.1039169E-11 <-- DLTA
 ------------------------------------------------------------------------------
 Cycle:     46
  WF centre and spread    1  (  0.000000,  0.000000, -0.000000 )     1.75028159
  WF centre and spread    2  (  0.000000,  0.000000,  0.000000 )     1.75027636
  WF centre and spread    3  (  0.000000,  0.000000,  0.000000 )     1.75029775
  Sum of centres and spreads (  0.000000,  0.000000,  0.000000 )     5.25085570
 
     46    -0.152E-11     0.0000142566        5.2508556951       0.21  <-- CONV
        O_D=      0.0000000 O_OD=      0.0057073 O_TOT=      5.2508557 <-- SPRD
 Delta: O_D= -0.2823676E-13 O_OD= -0.1495871E-11 O_TOT= -0.1524114E-11 <-- DLTA
 ------------------------------------------------------------------------------
 Cycle:     47
  WF centre and spread    1  (  0.000000,  0.000000, -0.000000 )     1.75028159
  WF centre and spread    2  (  0.000000,  0.000000,  0.000000 )     1.75027636
  WF centre and spread    3  (  0.000000,  0.000000,  0.000000 )     1.75029775
  Sum of centres and spreads (  0.000000,  0.000000,  0.000000 )     5.25085570
 
     47    -0.201E-11     0.0000142547        5.2508556951       0.22  <-- CONV
        O_D=      0.0000000 O_OD=      0.0057073 O_TOT=      5.2508557 <-- SPRD
 Delta: O_D= -0.3834578E-13 O_OD= -0.1969989E-11 O_TOT= -0.2008171E-11 <-- DLTA
 ------------------------------------------------------------------------------
 Cycle:     48
  WF centre and spread    1  (  0.000000,  0.000000, -0.000000 )     1.75028159
  WF centre and spread    2  (  0.000000,  0.000000,  0.000000 )     1.75027636
  WF centre and spread    3  (  0.000000,  0.000000,  0.000000 )     1.75029775
  Sum of centres and spreads (  0.000000,  0.000000,  0.000000 )     5.25085570
 
     48    -0.249E-11     0.0000142523        5.2508556951       0.22  <-- CONV
        O_D=      0.0000000 O_OD=      0.0057073 O_TOT=      5.2508557 <-- SPRD
 Delta: O_D= -0.4836513E-13 O_OD= -0.2443577E-11 O_TOT= -0.2492229E-11 <-- DLTA
 ------------------------------------------------------------------------------
 Cycle:     49
  WF centre and spread    1  (  0.000000,  0.000000, -0.000000 )     1.75028159
  WF centre and spread    2  (  0.000000,  0.000000,  0.000000 )     1.75027636
  WF centre and spread    3  (  0.000000,  0.000000,  0.000000 )     1.75029775
  Sum of centres and spreads (  0.000000,  0.000000,  0.000000 )     5.25085570
 
     49    -0.485E-12     0.0000142494        5.2508556951       0.22  <-- CONV
        O_D=      0.0000000 O_OD=      0.0057073 O_TOT=      5.2508557 <-- SPRD
 Delta: O_D= -0.1031883E-13 O_OD= -0.4747227E-12 O_TOT= -0.4849454E-12 <-- DLTA
 ------------------------------------------------------------------------------
 Cycle:     50
  WF centre and spread    1  (  0.000000,  0.000000, -0.000000 )     1.75028159
  WF centre and spread    2  (  0.000000,  0.000000,  0.000000 )     1.75027636
  WF centre and spread    3  (  0.000000,  0.000000,  0.000000 )     1.75029775
  Sum of centres and spreads (  0.000000,  0.000000,  0.000000 )     5.25085570
 
     50    -0.970E-12     0.0000142489        5.2508556951       0.22  <-- CONV
        O_D=      0.0000000 O_OD=      0.0057073 O_TOT=      5.2508557 <-- SPRD
 Delta: O_D= -0.2060317E-13 O_OD= -0.9493769E-12 O_TOT= -0.9698908E-12 <-- DLTA
 ------------------------------------------------------------------------------
 Cycle:     51
  WF centre and spread    1  (  0.000000,  0.000000, -0.000000 )     1.75028159
  WF centre and spread    2  (  0.000000,  0.000000,  0.000000 )     1.75027636
  WF centre and spread    3  (  0.000000,  0.000000,  0.000000 )     1.75029775
  Sum of centres and spreads (  0.000000,  0.000000,  0.000000 )     5.25085570
 
     51    -0.145E-11     0.0000142479        5.2508556951       0.22  <-- CONV
        O_D=      0.0000000 O_OD=      0.0057073 O_TOT=      5.2508557 <-- SPRD
 Delta: O_D= -0.3081794E-13 O_OD= -0.1423842E-11 O_TOT= -0.1454836E-11 <-- DLTA
 ------------------------------------------------------------------------------
 Cycle:     52
  WF centre and spread    1  (  0.000000,  0.000000, -0.000000 )     1.75028159
  WF centre and spread    2  (  0.000000,  0.000000,  0.000000 )     1.75027636
  WF centre and spread    3  (  0.000000,  0.000000,  0.000000 )     1.75029775
  Sum of centres and spreads (  0.000000,  0.000000,  0.000000 )     5.25085570
 
     52    -0.194E-11     0.0000142463        5.2508556951       0.23  <-- CONV
        O_D=      0.0000000 O_OD=      0.0057073 O_TOT=      5.2508557 <-- SPRD
 Delta: O_D= -0.4092841E-13 O_OD= -0.1898037E-11 O_TOT= -0.1938893E-11 <-- DLTA
 ------------------------------------------------------------------------------
 Cycle:     53
  WF centre and spread    1  (  0.000000,  0.000000, -0.000000 )     1.75028159
  WF centre and spread    2  (  0.000000,  0.000000,  0.000000 )     1.75027636
  WF centre and spread    3  (  0.000000,  0.000000,  0.000000 )     1.75029775
  Sum of centres and spreads (  0.000000,  0.000000,  0.000000 )     5.25085570
 
     53    -0.242E-11     0.0000142443        5.2508556951       0.23  <-- CONV
        O_D=      0.0000000 O_OD=      0.0057073 O_TOT=      5.2508557 <-- SPRD
 Delta: O_D= -0.5090040E-13 O_OD= -0.2371861E-11 O_TOT= -0.2422951E-11 <-- DLTA
 ------------------------------------------------------------------------------
 Cycle:     54
  WF centre and spread    1  (  0.000000,  0.000000, -0.000000 )     1.75028159
  WF centre and spread    2  (  0.000000,  0.000000,  0.000000 )     1.75027636
  WF centre and spread    3  (  0.000000,  0.000000,  0.000000 )     1.75029775
  Sum of centres and spreads (  0.000000,  0.000000,  0.000000 )     5.25085570
 
     54    -0.291E-11     0.0000142417        5.2508556951       0.23  <-- CONV
        O_D=      0.0000000 O_OD=      0.0057073 O_TOT=      5.2508557 <-- SPRD
 Delta: O_D= -0.6070040E-13 O_OD= -0.2845205E-11 O_TOT= -0.2906120E-11 <-- DLTA
 ------------------------------------------------------------------------------
 Cycle:     55
  WF centre and spread    1  (  0.000000,  0.000000, -0.000000 )     1.75028159
  WF centre and spread    2  (  0.000000,  0.000000,  0.000000 )     1.75027636
  WF centre and spread    3  (  0.000000,  0.000000,  0.000000 )     1.75029775
  Sum of centres and spreads (  0.000000,  0.000000,  0.000000 )     5.25085570
 
     55    -0.484E-12     0.0000142387        5.2508556951       0.23  <-- CONV
        O_D=      0.0000000 O_OD=      0.0057073 O_TOT=      5.2508557 <-- SPRD
 Delta: O_D= -0.9969807E-14 O_OD= -0.4743393E-12 O_TOT= -0.4840572E-12 <-- DLTA
 ------------------------------------------------------------------------------
 Cycle:     56
  WF centre and spread    1  (  0.000000,  0.000000, -0.000000 )     1.75028159
  WF centre and spread    2  (  0.000000,  0.000000,  0.000000 )     1.75027636
  WF centre and spread    3  (  0.000000,  0.000000,  0.000000 )     1.75029775
  Sum of centres and spreads (  0.000000,  0.000000,  0.000000 )     5.25085570
 
     56    -0.969E-12     0.0000142382        5.2508556951       0.23  <-- CONV
        O_D=      0.0000000 O_OD=      0.0057073 O_TOT=      5.2508557 <-- SPRD
 Delta: O_D= -0.1990670E-13 O_OD= -0.9486171E-12 O_TOT= -0.9690027E-12 <-- DLTA
 ------------------------------------------------------------------------------
 Cycle:     57
  WF centre and spread    1  (  0.000000,  0.000000, -0.000000 )     1.75028159
  WF centre and spread    2  (  0.000000,  0.000000,  0.000000 )     1.75027636
  WF centre and spread    3  (  0.000000,  0.000000,  0.000000 )     1.75029775
  Sum of centres and spreads (  0.000000,  0.000000,  0.000000 )     5.25085569
 
     57    -0.789E-09     0.0000142373        5.2508556943       0.24  <-- CONV
        O_D=      0.0000000 O_OD=      0.0057073 O_TOT=      5.2508557 <-- SPRD
 Delta: O_D= -0.5357602E-11 O_OD= -0.7840029E-09 O_TOT= -0.7893597E-09 <-- DLTA
 ------------------------------------------------------------------------------
 Cycle:     58
  WF centre and spread    1  (  0.000000,  0.000000, -0.000000 )     1.75028159
  WF centre and spread    2  (  0.000000,  0.000000,  0.000000 )     1.75027636
  WF centre and spread    3  (  0.000000,  0.000000,  0.000000 )     1.75029775
  Sum of centres and spreads (  0.000000,  0.000000,  0.000000 )     5.25085569
 
     58    -0.182E-11     0.0000141049        5.2508556943       0.24  <-- CONV
        O_D=      0.0000000 O_OD=      0.0057073 O_TOT=      5.2508557 <-- SPRD
 Delta: O_D=  0.2744460E-14 O_OD= -0.1820884E-11 O_TOT= -0.1818989E-11 <-- DLTA
 ------------------------------------------------------------------------------
 Cycle:     59
  WF centre and spread    1  (  0.000000,  0.000000, -0.000000 )     1.75028159
  WF centre and spread    2  (  0.000000,  0.000000,  0.000000 )     1.75027636
  WF centre and spread    3  (  0.000000,  0.000000,  0.000000 )     1.75029775
  Sum of centres and spreads (  0.000000,  0.000000,  0.000000 )     5.25085569
 
     59    -0.229E-11     0.0000141055        5.2508556943       0.24  <-- CONV
        O_D=      0.0000000 O_OD=      0.0057073 O_TOT=      5.2508557 <-- SPRD
 Delta: O_D= -0.4989919E-14 O_OD= -0.2288527E-11 O_TOT= -0.2292389E-11 <-- DLTA
 ------------------------------------------------------------------------------
 Cycle:     60
  WF centre and spread    1  (  0.000000,  0.000000, -0.000000 )     1.75028159
  WF centre and spread    2  (  0.000000,  0.000000,  0.000000 )     1.75027636
  WF centre and spread    3  (  0.000000,  0.000000,  0.000000 )     1.75029775
  Sum of centres and spreads (  0.000000,  0.000000,  0.000000 )     5.25085569
 
     60    -0.277E-11     0.0000141057        5.2508556943       0.24  <-- CONV
        O_D=      0.0000000 O_OD=      0.0057073 O_TOT=      5.2508557 <-- SPRD
 Delta: O_D= -0.1273259E-13 O_OD= -0.2756097E-11 O_TOT= -0.2769340E-11 <-- DLTA
 ------------------------------------------------------------------------------
 Cycle:     61
  WF centre and spread    1  (  0.000000,  0.000000, -0.000000 )     1.75028159
  WF centre and spread    2  (  0.000000,  0.000000,  0.000000 )     1.75027636
  WF centre and spread    3  (  0.000000,  0.000000,  0.000000 )     1.75029775
  Sum of centres and spreads (  0.000000,  0.000000,  0.000000 )     5.25085569
 
     61    -0.475E-12     0.0000141055        5.2508556943       0.24  <-- CONV
        O_D=      0.0000000 O_OD=      0.0057073 O_TOT=      5.2508557 <-- SPRD
 Delta: O_D= -0.7752748E-14 O_OD= -0.4675357E-12 O_TOT= -0.4751755E-12 <-- DLTA
 ------------------------------------------------------------------------------
 Cycle:     62
  WF centre and spread    1  (  0.000000,  0.000000, -0.000000 )     1.75028159
  WF centre and spread    2  (  0.000000,  0.000000,  0.000000 )     1.75027636
  WF centre and spread    3  (  0.000000,  0.000000,  0.000000 )     1.75029775
  Sum of centres and spreads (  0.000000,  0.000000,  0.000000 )     5.25085569
 
     62    -0.950E-12     0.0000141051        5.2508556943       0.25  <-- CONV
        O_D=      0.0000000 O_OD=      0.0057073 O_TOT=      5.2508557 <-- SPRD
 Delta: O_D= -0.1546936E-13 O_OD= -0.9350472E-12 O_TOT= -0.9503509E-12 <-- DLTA
 ------------------------------------------------------------------------------
 Cycle:     63
  WF centre and spread    1  (  0.000000,  0.000000, -0.000000 )     1.75028159
  WF centre and spread    2  (  0.000000,  0.000000,  0.000000 )     1.75027636
  WF centre and spread    3  (  0.000000,  0.000000,  0.000000 )     1.75029775
  Sum of centres and spreads (  0.000000,  0.000000,  0.000000 )     5.25085569
 
     63    -0.143E-11     0.0000141044        5.2508556943       0.25  <-- CONV
        O_D=      0.0000000 O_OD=      0.0057073 O_TOT=      5.2508557 <-- SPRD
 Delta: O_D= -0.2311348E-13 O_OD= -0.1402440E-11 O_TOT= -0.1426415E-11 <-- DLTA
 ------------------------------------------------------------------------------
 Cycle:     64
  WF centre and spread    1  (  0.000000,  0.000000, -0.000000 )     1.75028159
  WF centre and spread    2  (  0.000000,  0.000000,  0.000000 )     1.75027636
  WF centre and spread    3  (  0.000000,  0.000000,  0.000000 )     1.75029775
  Sum of centres and spreads (  0.000000,  0.000000,  0.000000 )     5.25085569
 
     64    -0.190E-11     0.0000141032        5.2508556943       0.25  <-- CONV
        O_D=      0.0000000 O_OD=      0.0057073 O_TOT=      5.2508557 <-- SPRD
 Delta: O_D= -0.3064917E-13 O_OD= -0.1869645E-11 O_TOT= -0.1899814E-11 <-- DLTA
 ------------------------------------------------------------------------------
 Cycle:     65
  WF centre and spread    1  (  0.000000,  0.000000, -0.000000 )     1.75028159
  WF centre and spread    2  (  0.000000,  0.000000,  0.000000 )     1.75027636
  WF centre and spread    3  (  0.000000,  0.000000,  0.000000 )     1.75029775
  Sum of centres and spreads (  0.000000,  0.000000,  0.000000 )     5.25085569
 
     65    -0.237E-11     0.0000141016        5.2508556943       0.25  <-- CONV
        O_D=      0.0000000 O_OD=      0.0057073 O_TOT=      5.2508557 <-- SPRD
 Delta: O_D= -0.3804115E-13 O_OD= -0.2336596E-11 O_TOT= -0.2374101E-11 <-- DLTA
 ------------------------------------------------------------------------------
 Cycle:     66
  WF centre and spread    1  (  0.000000,  0.000000, -0.000000 )     1.75028159
  WF centre and spread    2  (  0.000000,  0.000000,  0.000000 )     1.75027636
  WF centre and spread    3  (  0.000000,  0.000000,  0.000000 )     1.75029775
  Sum of centres and spreads (  0.000000,  0.000000,  0.000000 )     5.25085569
 
     66    -0.285E-11     0.0000140997        5.2508556943       0.25  <-- CONV
        O_D=      0.0000000 O_OD=      0.0057073 O_TOT=      5.2508557 <-- SPRD
 Delta: O_D= -0.4525498E-13 O_OD= -0.2803251E-11 O_TOT= -0.2848388E-11 <-- DLTA
 ------------------------------------------------------------------------------
 Cycle:     67
  WF centre and spread    1  (  0.000000,  0.000000, -0.000000 )     1.75028159
  WF centre and spread    2  (  0.000000,  0.000000,  0.000000 )     1.75027636
  WF centre and spread    3  (  0.000000,  0.000000,  0.000000 )     1.75029775
  Sum of centres and spreads (  0.000000,  0.000000,  0.000000 )     5.25085569
 
     67    -0.475E-12     0.0000140974        5.2508556943       0.25  <-- CONV
        O_D=      0.0000000 O_OD=      0.0057073 O_TOT=      5.2508557 <-- SPRD
 Delta: O_D= -0.7384808E-14 O_OD= -0.4673709E-12 O_TOT= -0.4751755E-12 <-- DLTA
 ------------------------------------------------------------------------------
 Cycle:     68
  WF centre and spread    1  (  0.000000,  0.000000, -0.000000 )     1.75028159
  WF centre and spread    2  (  0.000000,  0.000000,  0.000000 )     1.75027636
  WF centre and spread    3  (  0.000000,  0.000000,  0.000000 )     1.75029775
  Sum of centres and spreads (  0.000000,  0.000000,  0.000000 )     5.25085569
 
     68    -0.949E-12     0.0000140970        5.2508556943       0.26  <-- CONV
        O_D=      0.0000000 O_OD=      0.0057073 O_TOT=      5.2508557 <-- SPRD
 Delta: O_D= -0.1473552E-13 O_OD= -0.9346820E-12 O_TOT= -0.9494627E-12 <-- DLTA
 ------------------------------------------------------------------------------
 Cycle:     69
  WF centre and spread    1  (  0.000000,  0.000000, -0.000000 )     1.75028159
  WF centre and spread    2  (  0.000000,  0.000000,  0.000000 )     1.75027636
  WF centre and spread    3  (  0.000000,  0.000000,  0.000000 )     1.75029775
  Sum of centres and spreads (  0.000000,  0.000000,  0.000000 )     5.25085569
 
     69    -0.142E-11     0.0000140963        5.2508556943       0.26  <-- CONV
        O_D=      0.0000000 O_OD=      0.0057073 O_TOT=      5.2508557 <-- SPRD
 Delta: O_D= -0.2201783E-13 O_OD= -0.1401905E-11 O_TOT= -0.1423750E-11 <-- DLTA
 ------------------------------------------------------------------------------
 Cycle:     70
  WF centre and spread    1  (  0.000000,  0.000000, -0.000000 )     1.75028159
  WF centre and spread    2  (  0.000000,  0.000000,  0.000000 )     1.75027636
  WF centre and spread    3  (  0.000000,  0.000000,  0.000000 )     1.75029775
  Sum of centres and spreads (  0.000000,  0.000000,  0.000000 )     5.25085569
 
     70    -0.190E-11     0.0000140952        5.2508556943       0.26  <-- CONV
        O_D=      0.0000000 O_OD=      0.0057073 O_TOT=      5.2508557 <-- SPRD
 Delta: O_D= -0.2919785E-13 O_OD= -0.1868950E-11 O_TOT= -0.1898925E-11 <-- DLTA
 ------------------------------------------------------------------------------
 Cycle:     71
  WF centre and spread    1  (  0.000000,  0.000000, -0.000000 )     1.75028159
  WF centre and spread    2  (  0.000000,  0.000000,  0.000000 )     1.75027636
  WF centre and spread    3  (  0.000000,  0.000000,  0.000000 )     1.75029775
  Sum of centres and spreads (  0.000000,  0.000000,  0.000000 )     5.25085569
 
     71    -0.237E-11     0.0000140937        5.2508556943       0.26  <-- CONV
        O_D=      0.0000000 O_OD=      0.0057073 O_TOT=      5.2508557 <-- SPRD
 Delta: O_D= -0.3624230E-13 O_OD= -0.2335753E-11 O_TOT= -0.2371436E-11 <-- DLTA
 ------------------------------------------------------------------------------
 Cycle:     72
  WF centre and spread    1  (  0.000000,  0.000000, -0.000000 )     1.75028159
  WF centre and spread    2  (  0.000000,  0.000000,  0.000000 )     1.75027636
  WF centre and spread    3  (  0.000000,  0.000000,  0.000000 )     1.75029775
  Sum of centres and spreads (  0.000000,  0.000000,  0.000000 )     5.25085569
 
     72    -0.285E-11     0.0000140919        5.2508556943       0.26  <-- CONV
        O_D=      0.0000000 O_OD=      0.0057073 O_TOT=      5.2508557 <-- SPRD
 Delta: O_D= -0.4311869E-13 O_OD= -0.2802270E-11 O_TOT= -0.2845724E-11 <-- DLTA
 ------------------------------------------------------------------------------
 Cycle:     73
  WF centre and spread    1  (  0.000000,  0.000000, -0.000000 )     1.75028159
  WF centre and spread    2  (  0.000000,  0.000000,  0.000000 )     1.75027636
  WF centre and spread    3  (  0.000000,  0.000000,  0.000000 )     1.75029775
  Sum of centres and spreads (  0.000000,  0.000000,  0.000000 )     5.25085569
 
     73    -0.474E-12     0.0000140897        5.2508556943       0.26  <-- CONV
        O_D=      0.0000000 O_OD=      0.0057073 O_TOT=      5.2508557 <-- SPRD
 Delta: O_D= -0.7037400E-14 O_OD= -0.4671992E-12 O_TOT= -0.4742873E-12 <-- DLTA
 ------------------------------------------------------------------------------
 Cycle:     74
  WF centre and spread    1  (  0.000000,  0.000000, -0.000000 )     1.75028159
  WF centre and spread    2  (  0.000000,  0.000000,  0.000000 )     1.75027636
  WF centre and spread    3  (  0.000000,  0.000000,  0.000000 )     1.75029775
  Sum of centres and spreads (  0.000000,  0.000000,  0.000000 )     5.25085569
 
     74    -0.949E-12     0.0000140893        5.2508556943       0.27  <-- CONV
        O_D=      0.0000000 O_OD=      0.0057073 O_TOT=      5.2508557 <-- SPRD
 Delta: O_D= -0.1404262E-13 O_OD= -0.9343437E-12 O_TOT= -0.9485746E-12 <-- DLTA
 ------------------------------------------------------------------------------
 Cycle:     75
  WF centre and spread    1  (  0.000000,  0.000000, -0.000000 )     1.75028159
  WF centre and spread    2  (  0.000000,  0.000000,  0.000000 )     1.75027636
  WF centre and spread    3  (  0.000000,  0.000000,  0.000000 )     1.75029775
  Sum of centres and spreads (  0.000000,  0.000000,  0.000000 )     5.25085569
 
     75    -0.734E-09     0.0000140886        5.2508556936       0.27  <-- CONV
        O_D=      0.0000000 O_OD=      0.0057073 O_TOT=      5.2508557 <-- SPRD
 Delta: O_D= -0.1173216E-11 O_OD= -0.7324311E-09 O_TOT= -0.7336043E-09 <-- DLTA
 ------------------------------------------------------------------------------
 Cycle:     76
  WF centre and spread    1  (  0.000000,  0.000000, -0.000000 )     1.75028159
  WF centre and spread    2  (  0.000000,  0.000000,  0.000000 )     1.75027636
  WF centre and spread    3  (  0.000000,  0.000000,  0.000000 )     1.75029775
  Sum of centres and spreads (  0.000000,  0.000000,  0.000000 )     5.25085569
 
     76    -0.184E-11     0.0000140893        5.2508556936       0.27  <-- CONV
        O_D=      0.0000000 O_OD=      0.0057073 O_TOT=      5.2508557 <-- SPRD
 Delta: O_D=  0.7863581E-14 O_OD= -0.1848376E-11 O_TOT= -0.1840306E-11 <-- DLTA
 ------------------------------------------------------------------------------
 Cycle:     77
  WF centre and spread    1  (  0.000000,  0.000000, -0.000000 )     1.75028159
  WF centre and spread    2  (  0.000000,  0.000000,  0.000000 )     1.75027636
  WF centre and spread    3  (  0.000000,  0.000000,  0.000000 )     1.75029775
  Sum of centres and spreads (  0.000000,  0.000000,  0.000000 )     5.25085569
 
     77    -0.231E-11     0.0000140900        5.2508556936       0.27  <-- CONV
        O_D=      0.0000000 O_OD=      0.0057073 O_TOT=      5.2508557 <-- SPRD
 Delta: O_D= -0.8602070E-15 O_OD= -0.2314020E-11 O_TOT= -0.2314593E-11 <-- DLTA
 ------------------------------------------------------------------------------
 Cycle:     78
  WF centre and spread    1  (  0.000000,  0.000000, -0.000000 )     1.75028159
  WF centre and spread    2  (  0.000000,  0.000000,  0.000000 )     1.75027636
  WF centre and spread    3  (  0.000000,  0.000000,  0.000000 )     1.75029775
  Sum of centres and spreads (  0.000000,  0.000000,  0.000000 )     5.25085569
 
     78    -0.279E-11     0.0000140902        5.2508556936       0.27  <-- CONV
        O_D=      0.0000000 O_OD=      0.0057073 O_TOT=      5.2508557 <-- SPRD
 Delta: O_D= -0.9602272E-14 O_OD= -0.2779619E-11 O_TOT= -0.2789768E-11 <-- DLTA
 ------------------------------------------------------------------------------
 Cycle:     79
  WF centre and spread    1  (  0.000000,  0.000000, -0.000000 )     1.75028159
  WF centre and spread    2  (  0.000000,  0.000000,  0.000000 )     1.75027636
  WF centre and spread    3  (  0.000000,  0.000000,  0.000000 )     1.75029775
  Sum of centres and spreads (  0.000000,  0.000000,  0.000000 )     5.25085569
 
     79    -0.473E-12     0.0000140900        5.2508556936       0.28  <-- CONV
        O_D=      0.0000000 O_OD=      0.0057073 O_TOT=      5.2508557 <-- SPRD
 Delta: O_D= -0.8732282E-14 O_OD= -0.4655313E-12 O_TOT= -0.4733991E-12 <-- DLTA
 ------------------------------------------------------------------------------
 Cycle:     80
  WF centre and spread    1  (  0.000000,  0.000000, -0.000000 )     1.75028159
  WF centre and spread    2  (  0.000000,  0.000000,  0.000000 )     1.75027636
  WF centre and spread    3  (  0.000000,  0.000000,  0.000000 )     1.75029775
  Sum of centres and spreads (  0.000000,  0.000000,  0.000000 )     5.25085569
 
     80    -0.949E-12     0.0000140896        5.2508556936       0.28  <-- CONV
        O_D=      0.0000000 O_OD=      0.0057073 O_TOT=      5.2508557 <-- SPRD
 Delta: O_D= -0.1741868E-13 O_OD= -0.9309879E-12 O_TOT= -0.9485746E-12 <-- DLTA
 ------------------------------------------------------------------------------
 Cycle:     81
  WF centre and spread    1  (  0.000000,  0.000000, -0.000000 )     1.75028159
  WF centre and spread    2  (  0.000000,  0.000000,  0.000000 )     1.75027636
  WF centre and spread    3  (  0.000000,  0.000000,  0.000000 )     1.75029775
  Sum of centres and spreads (  0.000000,  0.000000,  0.000000 )     5.25085569
 
     81    -0.142E-11     0.0000140888        5.2508556936       0.28  <-- CONV
        O_D=      0.0000000 O_OD=      0.0057073 O_TOT=      5.2508557 <-- SPRD
 Delta: O_D= -0.2601306E-13 O_OD= -0.1396375E-11 O_TOT= -0.1421974E-11 <-- DLTA
 ------------------------------------------------------------------------------
 Cycle:     82
  WF centre and spread    1  (  0.000000,  0.000000, -0.000000 )     1.75028159
  WF centre and spread    2  (  0.000000,  0.000000,  0.000000 )     1.75027636
  WF centre and spread    3  (  0.000000,  0.000000,  0.000000 )     1.75029775
  Sum of centres and spreads (  0.000000,  0.000000,  0.000000 )     5.25085569
 
     82    -0.190E-11     0.0000140875        5.2508556936       0.28  <-- CONV
        O_D=      0.0000000 O_OD=      0.0057073 O_TOT=      5.2508557 <-- SPRD
 Delta: O_D= -0.3446988E-13 O_OD= -0.1861584E-11 O_TOT= -0.1896261E-11 <-- DLTA
 ------------------------------------------------------------------------------
 Cycle:     83
  WF centre and spread    1  (  0.000000,  0.000000, -0.000000 )     1.75028159
  WF centre and spread    2  (  0.000000,  0.000000,  0.000000 )     1.75027636
  WF centre and spread    3  (  0.000000,  0.000000,  0.000000 )     1.75029775
  Sum of centres and spreads (  0.000000,  0.000000,  0.000000 )     5.25085569
 
     83    -0.237E-11     0.0000140859        5.2508556936       0.28  <-- CONV
        O_D=      0.0000000 O_OD=      0.0057073 O_TOT=      5.2508557 <-- SPRD
 Delta: O_D= -0.4274444E-13 O_OD= -0.2326574E-11 O_TOT= -0.2369660E-11 <-- DLTA
 ------------------------------------------------------------------------------
 Cycle:     84
  WF centre and spread    1  (  0.000000,  0.000000, -0.000000 )     1.75028159
  WF centre and spread    2  (  0.000000,  0.000000,  0.000000 )     1.75027636
  WF centre and spread    3  (  0.000000,  0.000000,  0.000000 )     1.75029775
  Sum of centres and spreads (  0.000000,  0.000000,  0.000000 )     5.25085569
 
     84    -0.284E-11     0.0000140838        5.2508556936       0.28  <-- CONV
        O_D=      0.0000000 O_OD=      0.0057073 O_TOT=      5.2508557 <-- SPRD
 Delta: O_D= -0.5079318E-13 O_OD= -0.2791239E-11 O_TOT= -0.2841283E-11 <-- DLTA
 ------------------------------------------------------------------------------
 Cycle:     85
  WF centre and spread    1  (  0.000000,  0.000000, -0.000000 )     1.75028159
  WF centre and spread    2  (  0.000000,  0.000000,  0.000000 )     1.75027636
  WF centre and spread    3  (  0.000000,  0.000000,  0.000000 )     1.75029775
  Sum of centres and spreads (  0.000000,  0.000000,  0.000000 )     5.25085569
 
     85    -0.474E-12     0.0000140814        5.2508556936       0.29  <-- CONV
        O_D=      0.0000000 O_OD=      0.0057073 O_TOT=      5.2508557 <-- SPRD
 Delta: O_D= -0.8265154E-14 O_OD= -0.4654211E-12 O_TOT= -0.4742873E-12 <-- DLTA
 ------------------------------------------------------------------------------
 Cycle:     86
  WF centre and spread    1  (  0.000000,  0.000000, -0.000000 )     1.75028159
  WF centre and spread    2  (  0.000000,  0.000000,  0.000000 )     1.75027636
  WF centre and spread    3  (  0.000000,  0.000000,  0.000000 )     1.75029775
  Sum of centres and spreads (  0.000000,  0.000000,  0.000000 )     5.25085569
 
     86    -0.947E-12     0.0000140810        5.2508556936       0.29  <-- CONV
        O_D=      0.0000000 O_OD=      0.0057073 O_TOT=      5.2508557 <-- SPRD
 Delta: O_D= -0.1648713E-13 O_OD= -0.9307789E-12 O_TOT= -0.9467982E-12 <-- DLTA
 ------------------------------------------------------------------------------
 Cycle:     87
  WF centre and spread    1  (  0.000000,  0.000000, -0.000000 )     1.75028159
  WF centre and spread    2  (  0.000000,  0.000000,  0.000000 )     1.75027636
  WF centre and spread    3  (  0.000000,  0.000000,  0.000000 )     1.75029775
  Sum of centres and spreads (  0.000000,  0.000000,  0.000000 )     5.25085569
 
     87    -0.142E-11     0.0000140803        5.2508556936       0.29  <-- CONV
        O_D=      0.0000000 O_OD=      0.0057073 O_TOT=      5.2508557 <-- SPRD
 Delta: O_D= -0.2462257E-13 O_OD= -0.1396053E-11 O_TOT= -0.1421085E-11 <-- DLTA
 ------------------------------------------------------------------------------
 Cycle:     88
  WF centre and spread    1  (  0.000000,  0.000000, -0.000000 )     1.75028159
  WF centre and spread    2  (  0.000000,  0.000000,  0.000000 )     1.75027636
  WF centre and spread    3  (  0.000000,  0.000000,  0.000000 )     1.75029775
  Sum of centres and spreads (  0.000000,  0.000000,  0.000000 )     5.25085569
 
     88    -0.189E-11     0.0000140791        5.2508556936       0.29  <-- CONV
        O_D=      0.0000000 O_OD=      0.0057073 O_TOT=      5.2508557 <-- SPRD
 Delta: O_D= -0.3262863E-13 O_OD= -0.1861182E-11 O_TOT= -0.1894485E-11 <-- DLTA
 ------------------------------------------------------------------------------
 Cycle:     89
  WF centre and spread    1  (  0.000000,  0.000000, -0.000000 )     1.75028159
  WF centre and spread    2  (  0.000000,  0.000000,  0.000000 )     1.75027636
  WF centre and spread    3  (  0.000000,  0.000000,  0.000000 )     1.75029775
  Sum of centres and spreads (  0.000000,  0.000000,  0.000000 )     5.25085569
 
     89    -0.237E-11     0.0000140775        5.2508556936       0.29  <-- CONV
        O_D=      0.0000000 O_OD=      0.0057073 O_TOT=      5.2508557 <-- SPRD
 Delta: O_D= -0.4046327E-13 O_OD= -0.2326058E-11 O_TOT= -0.2366107E-11 <-- DLTA
 ------------------------------------------------------------------------------
 Cycle:     90
  WF centre and spread    1  (  0.000000,  0.000000, -0.000000 )     1.75028159
  WF centre and spread    2  (  0.000000,  0.000000,  0.000000 )     1.75027636
  WF centre and spread    3  (  0.000000,  0.000000,  0.000000 )     1.75029775
  Sum of centres and spreads (  0.000000,  0.000000,  0.000000 )     5.25085569
 
     90    -0.284E-11     0.0000140756        5.2508556936       0.29  <-- CONV
        O_D=      0.0000000 O_OD=      0.0057073 O_TOT=      5.2508557 <-- SPRD
 Delta: O_D= -0.4808552E-13 O_OD= -0.2790695E-11 O_TOT= -0.2838618E-11 <-- DLTA
 ------------------------------------------------------------------------------
 Cycle:     91
  WF centre and spread    1  (  0.000000,  0.000000, -0.000000 )     1.75028159
  WF centre and spread    2  (  0.000000,  0.000000,  0.000000 )     1.75027636
  WF centre and spread    3  (  0.000000,  0.000000,  0.000000 )     1.75029775
  Sum of centres and spreads (  0.000000,  0.000000,  0.000000 )     5.25085569
 
     91    -0.473E-12     0.0000140733        5.2508556936       0.30  <-- CONV
        O_D=      0.0000000 O_OD=      0.0057073 O_TOT=      5.2508557 <-- SPRD
 Delta: O_D= -0.7825403E-14 O_OD= -0.4652962E-12 O_TOT= -0.4725109E-12 <-- DLTA
 ------------------------------------------------------------------------------
 Cycle:     92
  WF centre and spread    1  (  0.000000,  0.000000, -0.000000 )     1.75028159
  WF centre and spread    2  (  0.000000,  0.000000,  0.000000 )     1.75027636
  WF centre and spread    3  (  0.000000,  0.000000,  0.000000 )     1.75029775
  Sum of centres and spreads (  0.000000,  0.000000,  0.000000 )     5.25085569
 
     92    -0.947E-12     0.0000140729        5.2508556936       0.30  <-- CONV
        O_D=      0.0000000 O_OD=      0.0057073 O_TOT=      5.2508557 <-- SPRD
 Delta: O_D= -0.1561018E-13 O_OD= -0.9305759E-12 O_TOT= -0.9467982E-12 <-- DLTA
 ------------------------------------------------------------------------------
 Cycle:     93
  WF centre and spread    1  (  0.000000,  0.000000, -0.000000 )     1.75028159
  WF centre and spread    2  (  0.000000,  0.000000,  0.000000 )     1.75027636
  WF centre and spread    3  (  0.000000,  0.000000,  0.000000 )     1.75029775
  Sum of centres and spreads (  0.000000,  0.000000,  0.000000 )     5.25085569
 
     93    -0.142E-11     0.0000140722        5.2508556935       0.30  <-- CONV
        O_D=      0.0000000 O_OD=      0.0057073 O_TOT=      5.2508557 <-- SPRD
 Delta: O_D= -0.2331356E-13 O_OD= -0.1395737E-11 O_TOT= -0.1419309E-11 <-- DLTA
 ------------------------------------------------------------------------------
 Cycle:     94
  WF centre and spread    1  (  0.000000,  0.000000, -0.000000 )     1.75028159
  WF centre and spread    2  (  0.000000,  0.000000,  0.000000 )     1.75027636
  WF centre and spread    3  (  0.000000,  0.000000,  0.000000 )     1.75029775
  Sum of centres and spreads (  0.000000,  0.000000,  0.000000 )     5.25085569
 
     94    -0.189E-11     0.0000140711        5.2508556935       0.30  <-- CONV
        O_D=      0.0000000 O_OD=      0.0057073 O_TOT=      5.2508557 <-- SPRD
 Delta: O_D= -0.3089524E-13 O_OD= -0.1860785E-11 O_TOT= -0.1891820E-11 <-- DLTA
 ------------------------------------------------------------------------------
 Cycle:     95
  WF centre and spread    1  (  0.000000,  0.000000, -0.000000 )     1.75028159
  WF centre and spread    2  (  0.000000,  0.000000,  0.000000 )     1.75027636
  WF centre and spread    3  (  0.000000,  0.000000,  0.000000 )     1.75029775
  Sum of centres and spreads (  0.000000,  0.000000,  0.000000 )     5.25085569
 
     95    -0.236E-11     0.0000140696        5.2508556935       0.30  <-- CONV
        O_D=      0.0000000 O_OD=      0.0057073 O_TOT=      5.2508557 <-- SPRD
 Delta: O_D= -0.3831568E-13 O_OD= -0.2325595E-11 O_TOT= -0.2363443E-11 <-- DLTA
 ------------------------------------------------------------------------------
 Cycle:     96
  WF centre and spread    1  (  0.000000,  0.000000, -0.000000 )     1.75028159
  WF centre and spread    2  (  0.000000,  0.000000,  0.000000 )     1.75027636
  WF centre and spread    3  (  0.000000,  0.000000,  0.000000 )     1.75029775
  Sum of centres and spreads (  0.000000,  0.000000,  0.000000 )     5.25085569
 
     96    -0.284E-11     0.0000140678        5.2508556935       0.30  <-- CONV
        O_D=      0.0000000 O_OD=      0.0057073 O_TOT=      5.2508557 <-- SPRD
 Delta: O_D= -0.4553636E-13 O_OD= -0.2790160E-11 O_TOT= -0.2835954E-11 <-- DLTA
 ------------------------------------------------------------------------------
 Cycle:     97
  WF centre and spread    1  (  0.000000,  0.000000, -0.000000 )     1.75028159
  WF centre and spread    2  (  0.000000,  0.000000,  0.000000 )     1.75027636
  WF centre and spread    3  (  0.000000,  0.000000,  0.000000 )     1.75029775
  Sum of centres and spreads (  0.000000,  0.000000,  0.000000 )     5.25085569
 
     97    -0.473E-12     0.0000140657        5.2508556935       0.31  <-- CONV
[...]
  Sum of centres and spreads (  0.000000,  0.000000,  0.000000 )     5.25085567
 
    473    -0.463E-12     0.0000139262        5.2508556700       0.98  <-- CONV
        O_D=      0.0000000 O_OD=      0.0057073 O_TOT=      5.2508557 <-- SPRD
 Delta: O_D= -0.4883429E-15 O_OD= -0.4628086E-12 O_TOT= -0.4627410E-12 <-- DLTA
 ------------------------------------------------------------------------------
 Cycle:    474
  WF centre and spread    1  (  0.000000,  0.000000,  0.000000 )     1.75028158
  WF centre and spread    2  (  0.000000,  0.000000,  0.000000 )     1.75027634
  WF centre and spread    3  (  0.000000,  0.000000,  0.000000 )     1.75029774
  Sum of centres and spreads (  0.000000,  0.000000,  0.000000 )     5.25085567
 
    474    -0.928E-12     0.0000139262        5.2508556700       0.98  <-- CONV
        O_D=      0.0000000 O_OD=      0.0057073 O_TOT=      5.2508557 <-- SPRD
 Delta: O_D= -0.9738735E-15 O_OD= -0.9256129E-12 O_TOT= -0.9281464E-12 <-- DLTA
 ------------------------------------------------------------------------------
 Cycle:    475
  WF centre and spread    1  (  0.000000,  0.000000,  0.000000 )     1.75028158
  WF centre and spread    2  (  0.000000,  0.000000,  0.000000 )     1.75027634
  WF centre and spread    3  (  0.000000,  0.000000,  0.000000 )     1.75029774
  Sum of centres and spreads (  0.000000,  0.000000,  0.000000 )     5.25085567
 
    475    -0.139E-11     0.0000139261        5.2508556700       0.98  <-- CONV
        O_D=      0.0000000 O_OD=      0.0057073 O_TOT=      5.2508557 <-- SPRD
 Delta: O_D= -0.1453794E-14 O_OD= -0.1388405E-11 O_TOT= -0.1389111E-11 <-- DLTA
 ------------------------------------------------------------------------------
 Cycle:    476
  WF centre and spread    1  (  0.000000,  0.000000,  0.000000 )     1.75028158
  WF centre and spread    2  (  0.000000,  0.000000,  0.000000 )     1.75027634
  WF centre and spread    3  (  0.000000,  0.000000,  0.000000 )     1.75029774
  Sum of centres and spreads (  0.000000,  0.000000,  0.000000 )     5.25085567
 
    476    -0.185E-11     0.0000139261        5.2508556700       0.98  <-- CONV
        O_D=      0.0000000 O_OD=      0.0057073 O_TOT=      5.2508557 <-- SPRD
 Delta: O_D= -0.1925341E-14 O_OD= -0.1851204E-11 O_TOT= -0.1852740E-11 <-- DLTA
 ------------------------------------------------------------------------------
 Cycle:    477
  WF centre and spread    1  (  0.000000,  0.000000,  0.000000 )     1.75028158
  WF centre and spread    2  (  0.000000,  0.000000,  0.000000 )     1.75027634
  WF centre and spread    3  (  0.000000,  0.000000,  0.000000 )     1.75029774
  Sum of centres and spreads (  0.000000,  0.000000,  0.000000 )     5.25085567
 
    477    -0.232E-11     0.0000139260        5.2508556700       0.98  <-- CONV
        O_D=      0.0000000 O_OD=      0.0057073 O_TOT=      5.2508557 <-- SPRD
 Delta: O_D= -0.2385799E-14 O_OD= -0.2313982E-11 O_TOT= -0.2316369E-11 <-- DLTA
 ------------------------------------------------------------------------------
 Cycle:    478
  WF centre and spread    1  (  0.000000,  0.000000,  0.000000 )     1.75028158
  WF centre and spread    2  (  0.000000,  0.000000,  0.000000 )     1.75027634
  WF centre and spread    3  (  0.000000,  0.000000,  0.000000 )     1.75029774
  Sum of centres and spreads (  0.000000,  0.000000,  0.000000 )     5.25085567
 
    478    -0.278E-11     0.0000139259        5.2508556700       0.99  <-- CONV
        O_D=      0.0000000 O_OD=      0.0057073 O_TOT=      5.2508557 <-- SPRD
 Delta: O_D= -0.2832516E-14 O_OD= -0.2776742E-11 O_TOT= -0.2779998E-11 <-- DLTA
 ------------------------------------------------------------------------------
 Cycle:    479
  WF centre and spread    1  (  0.000000,  0.000000,  0.000000 )     1.75028158
  WF centre and spread    2  (  0.000000,  0.000000,  0.000000 )     1.75027634
  WF centre and spread    3  (  0.000000,  0.000000,  0.000000 )     1.75029774
  Sum of centres and spreads (  0.000000,  0.000000,  0.000000 )     5.25085567
 
    479    -0.464E-12     0.0000139258        5.2508556700       0.99  <-- CONV
        O_D=      0.0000000 O_OD=      0.0057073 O_TOT=      5.2508557 <-- SPRD
 Delta: O_D= -0.4594098E-15 O_OD= -0.4628138E-12 O_TOT= -0.4636291E-12 <-- DLTA
 ------------------------------------------------------------------------------
 Cycle:    480
  WF centre and spread    1  (  0.000000,  0.000000,  0.000000 )     1.75028158
  WF centre and spread    2  (  0.000000,  0.000000,  0.000000 )     1.75027634
  WF centre and spread    3  (  0.000000,  0.000000,  0.000000 )     1.75029774
  Sum of centres and spreads (  0.000000,  0.000000,  0.000000 )     5.25085567
 
    480    -0.926E-12     0.0000139257        5.2508556700       0.99  <-- CONV
        O_D=      0.0000000 O_OD=      0.0057073 O_TOT=      5.2508557 <-- SPRD
 Delta: O_D= -0.9161762E-15 O_OD= -0.9256138E-12 O_TOT= -0.9263701E-12 <-- DLTA
 ------------------------------------------------------------------------------
 Cycle:    481
  WF centre and spread    1  (  0.000000,  0.000000,  0.000000 )     1.75028158
  WF centre and spread    2  (  0.000000,  0.000000,  0.000000 )     1.75027634
  WF centre and spread    3  (  0.000000,  0.000000,  0.000000 )     1.75029774
  Sum of centres and spreads (  0.000000,  0.000000,  0.000000 )     5.25085567
 
    481    -0.139E-11     0.0000139257        5.2508556700       0.99  <-- CONV
        O_D=      0.0000000 O_OD=      0.0057073 O_TOT=      5.2508557 <-- SPRD
 Delta: O_D= -0.1367670E-14 O_OD= -0.1388404E-11 O_TOT= -0.1389111E-11 <-- DLTA
 ------------------------------------------------------------------------------
 Cycle:    482
  WF centre and spread    1  (  0.000000,  0.000000,  0.000000 )     1.75028158
  WF centre and spread    2  (  0.000000,  0.000000,  0.000000 )     1.75027634
  WF centre and spread    3  (  0.000000,  0.000000,  0.000000 )     1.75029774
  Sum of centres and spreads (  0.000000,  0.000000,  0.000000 )     5.25085567
 
    482    -0.185E-11     0.0000139256        5.2508556700       0.99  <-- CONV
        O_D=      0.0000000 O_OD=      0.0057073 O_TOT=      5.2508557 <-- SPRD
 Delta: O_D= -0.1811292E-14 O_OD= -0.1851206E-11 O_TOT= -0.1852740E-11 <-- DLTA
 ------------------------------------------------------------------------------
 Cycle:    483
  WF centre and spread    1  (  0.000000,  0.000000,  0.000000 )     1.75028158
  WF centre and spread    2  (  0.000000,  0.000000,  0.000000 )     1.75027634
  WF centre and spread    3  (  0.000000,  0.000000,  0.000000 )     1.75029774
  Sum of centres and spreads (  0.000000,  0.000000,  0.000000 )     5.25085567
 
    483    -0.232E-11     0.0000139256        5.2508556700       0.99  <-- CONV
        O_D=      0.0000000 O_OD=      0.0057073 O_TOT=      5.2508557 <-- SPRD
 Delta: O_D= -0.2244490E-14 O_OD= -0.2313993E-11 O_TOT= -0.2317257E-11 <-- DLTA
 ------------------------------------------------------------------------------
 Cycle:    484
  WF centre and spread    1  (  0.000000,  0.000000,  0.000000 )     1.75028158
  WF centre and spread    2  (  0.000000,  0.000000,  0.000000 )     1.75027634
  WF centre and spread    3  (  0.000000,  0.000000,  0.000000 )     1.75029774
  Sum of centres and spreads (  0.000000,  0.000000,  0.000000 )     5.25085567
 
    484    -0.278E-11     0.0000139255        5.2508556700       1.00  <-- CONV
        O_D=      0.0000000 O_OD=      0.0057073 O_TOT=      5.2508557 <-- SPRD
 Delta: O_D= -0.2664772E-14 O_OD= -0.2776750E-11 O_TOT= -0.2779110E-11 <-- DLTA
 ------------------------------------------------------------------------------
 Cycle:    485
  WF centre and spread    1  (  0.000000,  0.000000,  0.000000 )     1.75028158
  WF centre and spread    2  (  0.000000,  0.000000,  0.000000 )     1.75027634
  WF centre and spread    3  (  0.000000,  0.000000,  0.000000 )     1.75029774
  Sum of centres and spreads (  0.000000,  0.000000,  0.000000 )     5.25085567
 
    485    -0.463E-12     0.0000139253        5.2508556700       1.00  <-- CONV
        O_D=      0.0000000 O_OD=      0.0057073 O_TOT=      5.2508557 <-- SPRD
 Delta: O_D= -0.4322121E-15 O_OD= -0.4628069E-12 O_TOT= -0.4627410E-12 <-- DLTA
 ------------------------------------------------------------------------------
 Cycle:    486
  WF centre and spread    1  (  0.000000,  0.000000,  0.000000 )     1.75028158
  WF centre and spread    2  (  0.000000,  0.000000,  0.000000 )     1.75027634
  WF centre and spread    3  (  0.000000,  0.000000,  0.000000 )     1.75029774
  Sum of centres and spreads (  0.000000,  0.000000,  0.000000 )     5.25085567
 
    486    -0.926E-12     0.0000139253        5.2508556700       1.00  <-- CONV
        O_D=      0.0000000 O_OD=      0.0057073 O_TOT=      5.2508557 <-- SPRD
 Delta: O_D= -0.8619393E-15 O_OD= -0.9256085E-12 O_TOT= -0.9263701E-12 <-- DLTA
 ------------------------------------------------------------------------------
 Cycle:    487
  WF centre and spread    1  (  0.000000,  0.000000,  0.000000 )     1.75028158
  WF centre and spread    2  (  0.000000,  0.000000,  0.000000 )     1.75027634
  WF centre and spread    3  (  0.000000,  0.000000,  0.000000 )     1.75029774
  Sum of centres and spreads (  0.000000,  0.000000,  0.000000 )     5.25085567
 
    487    -0.139E-11     0.0000139253        5.2508556700       1.00  <-- CONV
        O_D=      0.0000000 O_OD=      0.0057073 O_TOT=      5.2508557 <-- SPRD
 Delta: O_D= -0.1286710E-14 O_OD= -0.1388408E-11 O_TOT= -0.1390887E-11 <-- DLTA
 ------------------------------------------------------------------------------
 Cycle:    488
  WF centre and spread    1  (  0.000000,  0.000000,  0.000000 )     1.75028158
  WF centre and spread    2  (  0.000000,  0.000000,  0.000000 )     1.75027634
  WF centre and spread    3  (  0.000000,  0.000000,  0.000000 )     1.75029774
  Sum of centres and spreads (  0.000000,  0.000000,  0.000000 )     5.25085567
 
    488    -0.185E-11     0.0000139252        5.2508556700       1.00  <-- CONV
        O_D=      0.0000000 O_OD=      0.0057073 O_TOT=      5.2508557 <-- SPRD
 Delta: O_D= -0.1704082E-14 O_OD= -0.1851190E-11 O_TOT= -0.1852740E-11 <-- DLTA
 ------------------------------------------------------------------------------
 Cycle:    489
  WF centre and spread    1  (  0.000000,  0.000000,  0.000000 )     1.75028158
  WF centre and spread    2  (  0.000000,  0.000000,  0.000000 )     1.75027634
  WF centre and spread    3  (  0.000000,  0.000000,  0.000000 )     1.75029774
  Sum of centres and spreads (  0.000000,  0.000000,  0.000000 )     5.25085567
 
    489    -0.232E-11     0.0000139252        5.2508556700       1.00  <-- CONV
        O_D=      0.0000000 O_OD=      0.0057073 O_TOT=      5.2508557 <-- SPRD
 Delta: O_D= -0.2111655E-14 O_OD= -0.2313986E-11 O_TOT= -0.2315481E-11 <-- DLTA
 ------------------------------------------------------------------------------
 Cycle:    490
  WF centre and spread    1  (  0.000000,  0.000000,  0.000000 )     1.75028158
  WF centre and spread    2  (  0.000000,  0.000000,  0.000000 )     1.75027634
  WF centre and spread    3  (  0.000000,  0.000000,  0.000000 )     1.75029774
  Sum of centres and spreads (  0.000000,  0.000000,  0.000000 )     5.25085567
 
    490    -0.278E-11     0.0000139251        5.2508556700       1.01  <-- CONV
        O_D=      0.0000000 O_OD=      0.0057073 O_TOT=      5.2508557 <-- SPRD
 Delta: O_D= -0.2507089E-14 O_OD= -0.2776764E-11 O_TOT= -0.2779110E-11 <-- DLTA
 ------------------------------------------------------------------------------
 Cycle:    491
  WF centre and spread    1  (  0.000000,  0.000000,  0.000000 )     1.75028158
  WF centre and spread    2  (  0.000000,  0.000000,  0.000000 )     1.75027634
  WF centre and spread    3  (  0.000000,  0.000000,  0.000000 )     1.75029774
  Sum of centres and spreads (  0.000000,  0.000000,  0.000000 )     5.25085567
 
    491    -0.464E-12     0.0000139250        5.2508556700       1.01  <-- CONV
        O_D=      0.0000000 O_OD=      0.0057073 O_TOT=      5.2508557 <-- SPRD
 Delta: O_D= -0.4066455E-15 O_OD= -0.4628051E-12 O_TOT= -0.4636291E-12 <-- DLTA
 ------------------------------------------------------------------------------
 Cycle:    492
  WF centre and spread    1  (  0.000000,  0.000000,  0.000000 )     1.75028158
  WF centre and spread    2  (  0.000000,  0.000000,  0.000000 )     1.75027634
  WF centre and spread    3  (  0.000000,  0.000000,  0.000000 )     1.75029774
  Sum of centres and spreads (  0.000000,  0.000000,  0.000000 )     5.25085567
 
    492    -0.926E-12     0.0000139249        5.2508556700       1.01  <-- CONV
        O_D=      0.0000000 O_OD=      0.0057073 O_TOT=      5.2508557 <-- SPRD
 Delta: O_D= -0.8109552E-15 O_OD= -0.9256120E-12 O_TOT= -0.9263701E-12 <-- DLTA
 ------------------------------------------------------------------------------
 Cycle:    493
  WF centre and spread    1  (  0.000000,  0.000000,  0.000000 )     1.75028158
  WF centre and spread    2  (  0.000000,  0.000000,  0.000000 )     1.75027634
  WF centre and spread    3  (  0.000000,  0.000000,  0.000000 )     1.75029774
  Sum of centres and spreads (  0.000000,  0.000000,  0.000000 )     5.25085567
 
    493    -0.139E-11     0.0000139249        5.2508556700       1.01  <-- CONV
        O_D=      0.0000000 O_OD=      0.0057073 O_TOT=      5.2508557 <-- SPRD
 Delta: O_D= -0.1210606E-14 O_OD= -0.1388414E-11 O_TOT= -0.1389999E-11 <-- DLTA
 ------------------------------------------------------------------------------
 Cycle:    494
  WF centre and spread    1  (  0.000000,  0.000000,  0.000000 )     1.75028158
  WF centre and spread    2  (  0.000000,  0.000000,  0.000000 )     1.75027634
  WF centre and spread    3  (  0.000000,  0.000000,  0.000000 )     1.75029774
  Sum of centres and spreads (  0.000000,  0.000000,  0.000000 )     5.25085567
 
    494    -0.185E-11     0.0000139248        5.2508556700       1.01  <-- CONV
        O_D=      0.0000000 O_OD=      0.0057073 O_TOT=      5.2508557 <-- SPRD
 Delta: O_D= -0.1603302E-14 O_OD= -0.1851196E-11 O_TOT= -0.1851852E-11 <-- DLTA
 ------------------------------------------------------------------------------
 Cycle:    495
  WF centre and spread    1  (  0.000000,  0.000000,  0.000000 )     1.75028158
  WF centre and spread    2  (  0.000000,  0.000000,  0.000000 )     1.75027634
  WF centre and spread    3  (  0.000000,  0.000000,  0.000000 )     1.75029774
  Sum of centres and spreads (  0.000000,  0.000000,  0.000000 )     5.25085567
 
    495    -0.232E-11     0.0000139248        5.2508556700       1.01  <-- CONV
        O_D=      0.0000000 O_OD=      0.0057073 O_TOT=      5.2508557 <-- SPRD
 Delta: O_D= -0.1986787E-14 O_OD= -0.2313981E-11 O_TOT= -0.2316369E-11 <-- DLTA
 ------------------------------------------------------------------------------
 Cycle:    496
  WF centre and spread    1  (  0.000000,  0.000000,  0.000000 )     1.75028158
  WF centre and spread    2  (  0.000000,  0.000000,  0.000000 )     1.75027634
  WF centre and spread    3  (  0.000000,  0.000000,  0.000000 )     1.75029774
  Sum of centres and spreads (  0.000000,  0.000000,  0.000000 )     5.25085567
 
    496    -0.278E-11     0.0000139247        5.2508556700       1.02  <-- CONV
        O_D=      0.0000000 O_OD=      0.0057073 O_TOT=      5.2508557 <-- SPRD
 Delta: O_D= -0.2358861E-14 O_OD= -0.2776768E-11 O_TOT= -0.2779110E-11 <-- DLTA
 ------------------------------------------------------------------------------
 Cycle:    497
  WF centre and spread    1  (  0.000000,  0.000000,  0.000000 )     1.75028158
  WF centre and spread    2  (  0.000000,  0.000000,  0.000000 )     1.75027634
  WF centre and spread    3  (  0.000000,  0.000000,  0.000000 )     1.75029774
  Sum of centres and spreads (  0.000000,  0.000000,  0.000000 )     5.25085567
 
    497    -0.464E-12     0.0000139246        5.2508556700       1.02  <-- CONV
        O_D=      0.0000000 O_OD=      0.0057073 O_TOT=      5.2508557 <-- SPRD
 Delta: O_D= -0.3826122E-15 O_OD= -0.4628008E-12 O_TOT= -0.4636291E-12 <-- DLTA
 ------------------------------------------------------------------------------
 Cycle:    498
  WF centre and spread    1  (  0.000000,  0.000000,  0.000000 )     1.75028158
  WF centre and spread    2  (  0.000000,  0.000000,  0.000000 )     1.75027634
  WF centre and spread    3  (  0.000000,  0.000000,  0.000000 )     1.75029774
  Sum of centres and spreads (  0.000000,  0.000000,  0.000000 )     5.25085567
 
    498    -0.926E-12     0.0000139246        5.2508556700       1.02  <-- CONV
        O_D=      0.0000000 O_OD=      0.0057073 O_TOT=      5.2508557 <-- SPRD
 Delta: O_D= -0.7630288E-15 O_OD= -0.9256085E-12 O_TOT= -0.9263701E-12 <-- DLTA
 ------------------------------------------------------------------------------
 Cycle:    499
  WF centre and spread    1  (  0.000000,  0.000000,  0.000000 )     1.75028158
  WF centre and spread    2  (  0.000000,  0.000000,  0.000000 )     1.75027634
  WF centre and spread    3  (  0.000000,  0.000000,  0.000000 )     1.75029774
  Sum of centres and spreads (  0.000000,  0.000000,  0.000000 )     5.25085567
 
    499    -0.139E-11     0.0000139245        5.2508556700       1.02  <-- CONV
        O_D=      0.0000000 O_OD=      0.0057073 O_TOT=      5.2508557 <-- SPRD
 Delta: O_D= -0.1139066E-14 O_OD= -0.1388404E-11 O_TOT= -0.1389111E-11 <-- DLTA
 ------------------------------------------------------------------------------
 Cycle:    500
  WF centre and spread    1  (  0.000000,  0.000000,  0.000000 )     1.75028158
  WF centre and spread    2  (  0.000000,  0.000000,  0.000000 )     1.75027634
  WF centre and spread    3  (  0.000000,  0.000000,  0.000000 )     1.75029774
  Sum of centres and spreads (  0.000000,  0.000000,  0.000000 )     5.25085567
 
    500    -0.185E-11     0.0000139245        5.2508556700       1.02  <-- CONV
        O_D=      0.0000000 O_OD=      0.0057073 O_TOT=      5.2508557 <-- SPRD
 Delta: O_D= -0.1508565E-14 O_OD= -0.1851201E-11 O_TOT= -0.1853628E-11 <-- DLTA
 ------------------------------------------------------------------------------

 Writing checkpoint file mp-611517.chk... done

 Final State
  WF centre and spread    1  (  0.000000,  0.000000,  0.000000 )     1.75028158
  WF centre and spread    2  (  0.000000,  0.000000,  0.000000 )     1.75027634
  WF centre and spread    3  (  0.000000,  0.000000,  0.000000 )     1.75029774
  Sum of centres and spreads (  0.000000,  0.000000,  0.000000 )     5.25085567
 
         Spreads (Ang^2)       Omega I      =     5.245148364
        ================       Omega D      =     0.000000000
                               Omega OD     =     0.005707306
    Final Spread (Ang^2)       Omega Total  =     5.250855670
 ------------------------------------------------------------------------------
 Time for wannierise            1.014 (sec)

 Writing checkpoint file mp-611517.chk... done

 Time for plotting              0.000 (sec)
 Total Execution Time           2.385 (sec)

 *===========================================================================*
 |                             TIMING INFORMATION                            |
 *===========================================================================*
 |    Tag                                                Ncalls      Time (s)|
 |---------------------------------------------------------------------------|
 |kmesh: get                                        :         1         1.083|
 |overlap: allocate                                 :         1         0.001|
 |overlap: read                                     :         1         0.134|
 |wann: main                                        :         1         1.014|
 |plot: main                                        :         1         0.000|
 *---------------------------------------------------------------------------*
 
 All done: wannier90 exiting
