
     Program PWSCF v.7.1 starts on  8Apr2024 at 15:13: 5 

     This program is part of the open-source Quantum ESPRESSO suite
     for quantum simulation of materials; please cite
         "P. Giannozzi et al., J. Phys.:Condens. Matter 21 395502 (2009);
         "P. Giannozzi et al., J. Phys.:Condens. Matter 29 465901 (2017);
         "P. Giannozzi et al., J. Chem. Phys. 152 154105 (2020);
          URL http://www.quantum-espresso.org", 
     in publications or presentations arising from this work. More details at
     http://www.quantum-espresso.org/quote

     Parallel version (MPI), running on    16 processors

     MPI processes distributed on     1 nodes
     242553 MiB available memory on the printing compute node when the environment starts
 
     Reading input from pw_mp-611517_nscf_k3000_E65.in
Warning: card &IONS ignored
Warning: card / ignored
Warning: card &CELL ignored
Warning: card / ignored

     Current dimensions of program PWSCF are:
     Max number of different atomic species (ntypx) = 10
     Max number of k-points (npk) =  40000
     Max angular momentum in pseudopotentials (lmaxx) =  4

     Atomic positions and unit cell read from directory:
     out/mp-611517.save/
 
 
     R & G space division:  proc/nbgrp/npool/nimage =      16
     Subspace diagonalization in iterative solution of the eigenvalue problem:
     a serial algorithm will be used

 
     Parallelization info
     --------------------
     sticks:   dense  smooth     PW     G-vecs:    dense   smooth      PW
     Min          84      84     26                 2039     2039     359
     Max          85      85     27                 2043     2043     363
     Sum        1345    1345    421                32647    32647    5769
 
     Using Slab Decomposition
 


     bravais-lattice index     =            2
     lattice parameter (alat)  =      12.2699  a.u.
     unit-cell volume          =     461.8062 (a.u.)^3
     number of atoms/cell      =            1
     number of atomic types    =            1
     number of electrons       =        18.00
     number of Kohn-Sham states=           18
     kinetic-energy cutoff     =      65.0000  Ry
     charge density cutoff     =     260.0000  Ry
     Exchange-correlation= PBE
                           (   1   4   3   4   0   0   0)

     celldm(1)=  12.269869  celldm(2)=   0.000000  celldm(3)=   0.000000
     celldm(4)=   0.000000  celldm(5)=   0.000000  celldm(6)=   0.000000

     crystal axes: (cart. coord. in units of alat)
               a(1) = (  -0.500000   0.000000   0.500000 )  
               a(2) = (   0.000000   0.500000   0.500000 )  
               a(3) = (  -0.500000   0.500000   0.000000 )  

     reciprocal axes: (cart. coord. in units 2 pi/alat)
               b(1) = ( -1.000000 -1.000000  1.000000 )  
               b(2) = (  1.000000  1.000000  1.000000 )  
               b(3) = ( -1.000000  1.000000 -1.000000 )  


     PseudoPot. # 1 for Xe read from file:
     /usr/scratch4/magr4826/Promotion/Python/Code/devEb/pseudo/SG15/Xe.upf
     MD5 check sum: cc9f462402d923a4ee0779e880a8f0fc
     Pseudo is Norm-conserving, Zval = 18.0
     Generated using ONCVPSP code by D. R. Hamann
     Using radial grid of  602 points,  6 beta functions with: 
                l(1) =   0
                l(2) =   0
                l(3) =   1
                l(4) =   1
                l(5) =   2
                l(6) =   2

     atomic species   valence    mass     pseudopotential
        Xe            18.00   131.29300     Xe( 1.00)

     No symmetry found



   Cartesian axes

     site n.     atom                  positions (alat units)
         1           Xe  tau(   1) = (   0.0000000   0.0000000   0.0000000  )

     number of k points=  2744  Gaussian smearing, width (Ry)=  0.0005

     Number of k-points >= 100: set verbosity='high' to print them.

     Dense  grid:    32647 G-vectors     FFT dimensions: (  45,  45,  45)

     Estimated max dynamical RAM per process >     194.65 MB

     Estimated total dynamical RAM >       3.04 GB

     The potential is recalculated from file :
     out/mp-611517.save/charge-density

     Starting wfcs are random

     Band Structure Calculation
     Davidson diagonalization with overlap

     ethr =  5.00E-06,  avg # of iterations = 19.2

     total cpu time spent up to now is      137.8 secs

     End of band structure calculation

     Number of k-points >= 100: set verbosity='high' to print the bands.

     the Fermi energy is     0.4979 ev
     (compare with:     0.4979 eV, computed in scf)

     Writing all to output data dir out/mp-611517.save/
 
     init_run     :      0.11s CPU      0.13s WALL (       1 calls)
     electrons    :    119.54s CPU    137.41s WALL (       1 calls)

     Called by init_run:
     wfcinit      :      0.00s CPU      0.00s WALL (       1 calls)
     potinit      :      0.02s CPU      0.02s WALL (       1 calls)
     hinit0       :      0.04s CPU      0.05s WALL (       1 calls)

     Called by electrons:
     c_bands      :    119.53s CPU    137.41s WALL (       1 calls)
     v_of_rho     :      0.01s CPU      0.01s WALL (       1 calls)

     Called by c_bands:
     init_us_2    :      0.09s CPU      0.10s WALL (    2744 calls)
     init_us_2:cp :      0.09s CPU      0.09s WALL (    2744 calls)
     cegterg      :    111.52s CPU    114.20s WALL (    3592 calls)

     Called by *egterg:
     cdiaghg      :     15.12s CPU     15.50s WALL (   55471 calls)
     h_psi        :     96.11s CPU     98.52s WALL (   59063 calls)
     g_psi        :      0.37s CPU      0.39s WALL (   52727 calls)

     Called by h_psi:
     h_psi:calbec :      1.26s CPU      1.29s WALL (   59063 calls)
     vloc_psi     :     93.98s CPU     96.33s WALL (   59063 calls)
     add_vuspsi   :      0.54s CPU      0.56s WALL (   59063 calls)

     General routines
     calbec       :      1.20s CPU      1.24s WALL (   59063 calls)
     fft          :      0.01s CPU      0.02s WALL (      10 calls)
     fftw         :     89.71s CPU     91.94s WALL ( 1393884 calls)
 
     Parallel routines
 
     PWSCF        :   2m 7.09s CPU   3m14.55s WALL

 
   This run was terminated on:  15:16:20   8Apr2024            

=------------------------------------------------------------------------------=
   JOB DONE.
=------------------------------------------------------------------------------=
