
     Program PWSCF v.7.1 starts on  3Jan2024 at 14:34:28 

     This program is part of the open-source Quantum ESPRESSO suite
     for quantum simulation of materials; please cite
         "P. Giannozzi et al., J. Phys.:Condens. Matter 21 395502 (2009);
         "P. Giannozzi et al., J. Phys.:Condens. Matter 29 465901 (2017);
         "P. Giannozzi et al., J. Chem. Phys. 152 154105 (2020);
          URL http://www.quantum-espresso.org", 
     in publications or presentations arising from this work. More details at
     http://www.quantum-espresso.org/quote

     Parallel version (MPI), running on     8 processors

     MPI processes distributed on     1 nodes
     121136 MiB available memory on the printing compute node when the environment starts
 
     Reading input from pw_mp-23155_emass_k3000_E130.in
Warning: card &IONS ignored
Warning: card / ignored
Warning: card &CELL ignored
Warning: card / ignored

     Current dimensions of program PWSCF are:
     Max number of different atomic species (ntypx) = 10
     Max number of k-points (npk) =  40000
     Max angular momentum in pseudopotentials (lmaxx) =  4

     Atomic positions and unit cell read from directory:
     out/mp-23155.save/
 
 
     R & G space division:  proc/nbgrp/npool/nimage =       8
     Subspace diagonalization in iterative solution of the eigenvalue problem:
     a serial algorithm will be used

 
     Parallelization info
     --------------------
     sticks:   dense  smooth     PW     G-vecs:    dense   smooth      PW
     Min         227     227     56                 6489     6489     802
     Max         231     231     57                 6490     6490     805
     Sum        1831    1831    451                51913    51913    6423
 
     Using Slab Decomposition
 


     bravais-lattice index     =            2
     lattice parameter (alat)  =      10.1349  a.u.
     unit-cell volume          =     260.2548 (a.u.)^3
     number of atoms/cell      =            1
     number of atomic types    =            1
     number of electrons       =         8.00
     number of Kohn-Sham states=            8
     kinetic-energy cutoff     =     130.0000  Ry
     charge density cutoff     =     520.0000  Ry
     Exchange-correlation= PBE
                           (   1   4   3   4   0   0   0)

     celldm(1)=  10.134903  celldm(2)=   0.000000  celldm(3)=   0.000000
     celldm(4)=   0.000000  celldm(5)=   0.000000  celldm(6)=   0.000000

     crystal axes: (cart. coord. in units of alat)
               a(1) = (  -0.500000   0.000000   0.500000 )  
               a(2) = (   0.000000   0.500000   0.500000 )  
               a(3) = (  -0.500000   0.500000   0.000000 )  

     reciprocal axes: (cart. coord. in units 2 pi/alat)
               b(1) = ( -1.000000 -1.000000  1.000000 )  
               b(2) = (  1.000000  1.000000  1.000000 )  
               b(3) = ( -1.000000  1.000000 -1.000000 )  


     PseudoPot. # 1 for Ar read from file:
     /usr/scratch4/magr4985/MG/devEb/pseudo/SG15/Ar.upf
     MD5 check sum: 6715cac821e772f23804120e3f599f9d
     Pseudo is Norm-conserving, Zval =  8.0
     Generated using ONCVPSP code by D. R. Hamann
     Using radial grid of  602 points,  4 beta functions with: 
                l(1) =   0
                l(2) =   0
                l(3) =   1
                l(4) =   1

     atomic species   valence    mass     pseudopotential
        Ar             8.00    39.94800     Ar( 1.00)

     48 Sym. Ops., with inversion, found



   Cartesian axes

     site n.     atom                  positions (alat units)
         1           Ar  tau(   1) = (   0.0000000   0.0000000   0.0000000  )

     number of k points=     7  Gaussian smearing, width (Ry)=  0.0005
                       cart. coord. in units 2pi/alat
        k(    1) = (   0.0000000   0.0000000   0.0000000), wk =   0.2857143
        k(    2) = (   0.0100000   0.0000000   0.0000000), wk =   0.2857143
        k(    3) = (  -0.0100000   0.0000000   0.0000000), wk =   0.2857143
        k(    4) = (   0.0000000   0.0100000   0.0000000), wk =   0.2857143
        k(    5) = (   0.0000000  -0.0100000   0.0000000), wk =   0.2857143
        k(    6) = (   0.0000000   0.0000000   0.0100000), wk =   0.2857143
        k(    7) = (   0.0000000   0.0000000  -0.0100000), wk =   0.2857143

     Dense  grid:    51913 G-vectors     FFT dimensions: (  54,  54,  54)

     Estimated max dynamical RAM per process >       3.88 MB

     Estimated total dynamical RAM >      31.03 MB

     The potential is recalculated from file :
     out/mp-23155.save/charge-density

     Starting wfcs are random

     Band Structure Calculation
     ParO style diagonalization

     ethr =  5.00E-06,  avg # of iterations = 16.9

     total cpu time spent up to now is        0.7 secs

     End of band structure calculation

          k = 0.0000 0.0000 0.0000 (  6423 PWs)   bands (ev):

   -19.0565  -4.3933  -4.3933  -4.3933   4.2430  12.4252  12.4252  12.4252

          k = 0.0100 0.0000 0.0000 (  6423 PWs)   bands (ev):

   -19.0564  -4.3936  -4.3934  -4.3934   4.2439  12.4230  12.4255  12.4255

          k =-0.0100 0.0000 0.0000 (  6423 PWs)   bands (ev):

   -19.0564  -4.3936  -4.3934  -4.3934   4.2439  12.4230  12.4255  12.4255

          k = 0.0000 0.0100 0.0000 (  6423 PWs)   bands (ev):

   -19.0564  -4.3936  -4.3934  -4.3934   4.2439  12.4230  12.4255  12.4255

          k = 0.0000-0.0100 0.0000 (  6423 PWs)   bands (ev):

   -19.0564  -4.3936  -4.3934  -4.3934   4.2439  12.4230  12.4255  12.4255

          k = 0.0000 0.0000 0.0100 (  6423 PWs)   bands (ev):

   -19.0564  -4.3936  -4.3934  -4.3934   4.2439  12.4230  12.4255  12.4255

          k = 0.0000 0.0000-0.0100 (  6423 PWs)   bands (ev):

   -19.0564  -4.3936  -4.3934  -4.3934   4.2439  12.4230  12.4255  12.4255

     the Fermi energy is    -3.3155 ev
     (compare with:    -3.3155 eV, computed in scf)

     Writing all to output data dir out/mp-23155.save/
 
     init_run     :      0.08s CPU      0.09s WALL (       1 calls)
     electrons    :      0.51s CPU      0.53s WALL (       1 calls)

     Called by init_run:
     wfcinit      :      0.00s CPU      0.00s WALL (       1 calls)
     potinit      :      0.02s CPU      0.03s WALL (       1 calls)
     hinit0       :      0.01s CPU      0.01s WALL (       1 calls)

     Called by electrons:
     c_bands      :      0.51s CPU      0.53s WALL (       1 calls)
     v_of_rho     :      0.01s CPU      0.02s WALL (       1 calls)

     Called by c_bands:
     init_us_2    :      0.00s CPU      0.00s WALL (       7 calls)
     init_us_2:cp :      0.00s CPU      0.00s WALL (       7 calls)
     paro_k       :      0.48s CPU      0.50s WALL (       7 calls)

     Called by paro_*:
     h_psi        :      0.42s CPU      0.44s WALL (     329 calls)
     g_psi        :      0.01s CPU      0.01s WALL (    1153 calls)

     Called by h_psi:
     h_psi:calbec :      0.01s CPU      0.01s WALL (     329 calls)
     vloc_psi     :      0.40s CPU      0.41s WALL (     329 calls)
     add_vuspsi   :      0.01s CPU      0.01s WALL (     329 calls)

     General routines
     calbec       :      0.01s CPU      0.01s WALL (     329 calls)
     fft          :      0.01s CPU      0.02s WALL (      10 calls)
     fftw         :      0.35s CPU      0.37s WALL (    1926 calls)
 
     Parallel routines
 
     PWSCF        :      0.69s CPU      0.75s WALL

 
   This run was terminated on:  14:34:28   3Jan2024            

=------------------------------------------------------------------------------=
   JOB DONE.
=------------------------------------------------------------------------------=
