 
             +---------------------------------------------------+
             |                                                   |
             |                   WANNIER90                       |
             |                                                   |
             +---------------------------------------------------+
             |                                                   |
             |        Welcome to the Maximally-Localized         |
             |        Generalized Wannier Functions code         |
             |            http://www.wannier.org                 |
             |                                                   |
             |                                                   |
             |  Wannier90 Developer Group:                       |
             |    Giovanni Pizzi    (EPFL)                       |
             |    Valerio Vitale    (Cambridge)                  |
             |    David Vanderbilt  (Rutgers University)         |
             |    Nicola Marzari    (EPFL)                       |
             |    Ivo Souza         (Universidad del Pais Vasco) |
             |    Arash A. Mostofi  (Imperial College London)    |
             |    Jonathan R. Yates (University of Oxford)       |
             |                                                   |
             |  For the full list of Wannier90 3.x authors,      |
             |  please check the code documentation and the      |
             |  README on the GitHub page of the code            |
             |                                                   |
             |                                                   |
             |  Please cite                                      |
             |                                                   |
             |  [ref] "Wannier90 as a community code:            |
             |        new features and applications",            |
             |        G. Pizzi et al., J. Phys. Cond. Matt. 32,  |
             |        165902 (2020).                             |
             |        http://doi.org/10.1088/1361-648X/ab51ff    |
             |                                                   |
             |  in any publications arising from the use of      |
             |  this code. For the method please cite            |
             |                                                   |
             |  [ref] "Maximally Localized Generalised Wannier   |
             |         Functions for Composite Energy Bands"     |
             |         N. Marzari and D. Vanderbilt              |
             |         Phys. Rev. B 56 12847 (1997)              |
             |                                                   |
             |  [ref] "Maximally Localized Wannier Functions     |
             |         for Entangled Energy Bands"               |
             |         I. Souza, N. Marzari and D. Vanderbilt    |
             |         Phys. Rev. B 65 035109 (2001)             |
             |                                                   |
             |                                                   |
             | Copyright (c) 1996-2020                           |
             |        The Wannier90 Developer Group and          |
             |        individual contributors                    |
             |                                                   |
             |      Release: 3.1.0        5th March    2020      |
             |                                                   |
             | This program is free software; you can            |
             | redistribute it and/or modify it under the terms  |
             | of the GNU General Public License as published by |
             | the Free Software Foundation; either version 2 of |
             | the License, or (at your option) any later version|
             |                                                   |
             | This program is distributed in the hope that it   |
             | will be useful, but WITHOUT ANY WARRANTY; without |
             | even the implied warranty of MERCHANTABILITY or   |
             | FITNESS FOR A PARTICULAR PURPOSE. See the GNU     |
             | General Public License for more details.          |
             |                                                   |
             | You should have received a copy of the GNU General|
             | Public License along with this program; if not,   |
             | write to the Free Software Foundation, Inc.,      |
             | 675 Mass Ave, Cambridge, MA 02139, USA.           |
             |                                                   |
             +---------------------------------------------------+
             |    Execution started on  3Jan2024 at 14:44:03     |
             +---------------------------------------------------+
 
 ******************************************************************************
 * -> Using CODATA 2006 constant values                                       *
 *    (http://physics.nist.gov/cuu/Constants/index.html)                      *
 * -> Using Bohr value from CODATA                                            *
 ******************************************************************************
 

 Running in parallel on   8 CPUs

 
                                    ------
                                    SYSTEM
                                    ------
 
                              Lattice Vectors (Ang)
                    a_1     5.679844   0.000000   0.000000
                    a_2     0.000000   5.679844   0.000000
                    a_3     0.000000   0.000000   5.679844
 
                   Unit Cell Volume:     183.23533  (Ang^3)
 
                        Reciprocal-Space Vectors (Ang^-1)
                    b_1     1.106225   0.000000   0.000000
                    b_2     0.000000   1.106225   0.000000
                    b_3     0.000000   0.000000   1.106225
  
 *----------------------------------------------------------------------------*
 |   Site       Fractional Coordinate          Cartesian Coordinate (Ang)     |
 +----------------------------------------------------------------------------+
 | Cs   1   0.00000   0.00000   0.00000   |    0.00000   0.00000   0.00000    |
 | Pb   1   0.50000   0.50000   0.50000   |    2.83992   2.83992   2.83992    |
 | Cl   1   0.00000   0.50000   0.50000   |    0.00000   2.83992   2.83992    |
 | Cl   2   0.50000   0.00000   0.50000   |    2.83992   0.00000   2.83992    |
 | Cl   3   0.50000   0.50000   0.00000   |    2.83992   2.83992   0.00000    |
 *----------------------------------------------------------------------------*
                                ------------
                                K-POINT GRID
                                ------------
  
             Grid size =  8 x  8 x  8      Total points =  512
  
  
 *---------------------------------- MAIN ------------------------------------*
 |  Number of Wannier Functions               :                 9             |
 |  Number of Objective Wannier Functions     :                 9             |
 |  Number of input Bloch states              :                 9             |
 |  Output verbosity (1=low, 5=high)          :                 1             |
 |  Timing Level (1=low, 5=high)              :                 1             |
 |  Optimisation (0=memory, 3=speed)          :                 3             |
 |  Length Unit                               :               Ang             |
 |  Post-processing setup (write *.nnkp)      :                 F             |
 |  Using Gamma-only branch of algorithms     :                 F             |
 *----------------------------------------------------------------------------*
 *------------------------------- WANNIERISE ---------------------------------*
 |  Total number of iterations                :               500             |
 |  Number of CG steps before reset           :                 5             |
 |  Trial step length for line search         :             2.000             |
 |  Convergence tolerence                     :         0.100E-09             |
 |  Convergence window                        :                -1             |
 |  Iterations between writing output         :                 1             |
 |  Iterations between backing up to disk     :               100             |
 |  Write r^2_nm to file                      :                 F             |
 |  Write xyz WF centres to file              :                 F             |
 |  Write on-site energies <0n|H|0n> to file  :                 F             |
 |  Use guiding centre to control phases      :                 F             |
 |  Use phases for initial projections        :                 F             |
 *----------------------------------------------------------------------------*
 Time to read parameters        0.033 (sec)

 *---------------------------------- K-MESH ----------------------------------*
 +----------------------------------------------------------------------------+
 |                    Distance to Nearest-Neighbour Shells                    |
 |                    ------------------------------------                    |
 |          Shell             Distance (Ang^-1)          Multiplicity         |
 |          -----             -----------------          ------------         |
 |             1                   0.138278                      6            |
 |             2                   0.195555                     12            |
 |             3                   0.239505                      8            |
 |             4                   0.276556                      6            |
 |             5                   0.309199                     24            |
 |             6                   0.338711                     24            |
 |             7                   0.391110                     12            |
 |             8                   0.414834                     30            |
 |             9                   0.437274                     24            |
 |            10                   0.458617                     24            |
 |            11                   0.479009                      8            |
 |            12                   0.498569                     24            |
 |            13                   0.517389                     48            |
 |            14                   0.553112                      6            |
 |            15                   0.570135                     48            |
 |            16                   0.586664                     36            |
 |            17                   0.602740                     24            |
 |            18                   0.618399                     24            |
 |            19                   0.633670                     48            |
 |            20                   0.648582                     24            |
 |            21                   0.677422                     24            |
 |            22                   0.691391                     30            |
 |            23                   0.705083                     72            |
 |            24                   0.718514                     32            |
 |            25                   0.744650                     72            |
 |            26                   0.757380                     48            |
 |            27                   0.782219                     12            |
 |            28                   0.794347                     48            |
 |            29                   0.806293                     48            |
 |            30                   0.818064                     48            |
 |            31                   0.829669                     30            |
 |            32                   0.841113                     24            |
 |            33                   0.852404                     72            |
 |            34                   0.874548                     24            |
 |            35                   0.885412                     96            |
 |            36                   0.896145                     48            |
 +----------------------------------------------------------------------------+
 | The b-vectors are chosen automatically                                     |
 | The following shells are used:   1                                         |
 +----------------------------------------------------------------------------+
 |                        Shell   # Nearest-Neighbours                        |
 |                        -----   --------------------                        |
 |                          1               6                                 |
 +----------------------------------------------------------------------------+
 | Completeness relation is fully satisfied [Eq. (B1), PRB 56, 12847 (1997)]  |
 +----------------------------------------------------------------------------+
 |                  b_k Vectors (Ang^-1) and Weights (Ang^2)                  |
 |                  ----------------------------------------                  |
 |            No.         b_k(x)      b_k(y)      b_k(z)        w_b           |
 |            ---        --------------------------------     --------        |
 |             1         0.000000    0.000000    0.138278    26.149480        |
 |             2         0.000000    0.138278    0.000000    26.149480        |
 |             3         0.138278    0.000000    0.000000    26.149480        |
 |             4         0.000000    0.000000   -0.138278    26.149480        |
 |             5         0.000000   -0.138278    0.000000    26.149480        |
 |             6        -0.138278    0.000000    0.000000    26.149480        |
 +----------------------------------------------------------------------------+
 |                           b_k Directions (Ang^-1)                          |
 |                           -----------------------                          |
 |            No.           x           y           z                         |
 |            ---        --------------------------------                     |
 |             1         0.000000    0.000000    0.138278                     |
 |             2         0.000000    0.138278    0.000000                     |
 |             3         0.138278    0.000000    0.000000                     |
 +----------------------------------------------------------------------------+
  
 Time to get kmesh              0.318 (sec)
 *============================================================================*
 |                              MEMORY ESTIMATE                               |
 |         Maximum RAM allocated during each phase of the calculation         |
 *============================================================================*
 |                            Wannierise:           11.37 Mb                  |
 |                          plot_wannier:           11.37 Mb                  |
 *----------------------------------------------------------------------------*
  
 Starting a new Wannier90 calculation ...


 Reading overlaps from mp-23037.mmn    :  Created on  3Jan2024 at 14:43:53

 Reading projections from mp-23037.amn :  Created on  3Jan2024 at 14:43:49  with SCDM

 Time to read overlaps          0.245 (sec)

 Writing checkpoint file mp-23037.chk... done

 
 *------------------------------- WANNIERISE ---------------------------------*
 +--------------------------------------------------------------------+<-- CONV
 | Iter  Delta Spread     RMS Gradient      Spread (Ang^2)      Time  |<-- CONV
 +--------------------------------------------------------------------+<-- CONV
 
 ------------------------------------------------------------------------------
 Initial State
  WF centre and spread    1  (  2.841296, -0.000112,  2.842389 )     1.59107305
  WF centre and spread    2  (  2.841858, -0.000114, -2.843177 )     1.60401012
  WF centre and spread    3  ( -0.000019,  2.843501, -2.843482 )     1.61109558
  WF centre and spread    4  ( -0.000195, -2.842025, -2.843303 )     1.60126977
  WF centre and spread    5  (  2.841478, -2.842046,  0.000347 )     1.59254297
  WF centre and spread    6  (  2.841652,  2.843522,  0.000265 )     1.60235175
  WF centre and spread    7  ( -0.003378, -2.840223, -2.838531 )     3.71690637
  WF centre and spread    8  ( -2.841396, -2.840224,  0.004880 )     3.74206103
  WF centre and spread    9  ( -2.841267, -0.002149, -2.839133 )     3.73341345
  Sum of centres and spreads (  5.680030, -5.679870,-11.359744 )    20.79472410
 
      0     0.208E+02     0.0000000000       20.7947241010       0.00  <-- CONV
        O_D=      0.0426069 O_OD=      1.0145165 O_TOT=     20.7947241 <-- SPRD
 ------------------------------------------------------------------------------
 Cycle:      1
  WF centre and spread    1  (  2.840569, -0.000049,  2.841207 )     1.54514885
  WF centre and spread    2  (  2.840914, -0.000048, -2.841589 )     1.55021764
  WF centre and spread    3  ( -0.000100,  2.841797, -2.841806 )     1.55341994
  WF centre and spread    4  ( -0.000165, -2.841001, -2.841690 )     1.54923070
  WF centre and spread    5  (  2.840676, -2.841000,  0.000187 )     1.54570277
  WF centre and spread    6  (  2.840791,  2.841796,  0.000157 )     1.54973145
  WF centre and spread    7  ( -0.001806, -2.840043, -2.839440 )     3.64680135
  WF centre and spread    8  ( -2.840501, -2.840043,  0.002864 )     3.65857390
  WF centre and spread    9  ( -2.840464, -0.001322, -2.839507 )     3.65463560
  Sum of centres and spreads (  5.679915, -5.679914,-11.359617 )    20.25346220
 
      1    -0.541E+00     0.4007066275       20.2534622004       0.01  <-- CONV
        O_D=      0.0068137 O_OD=      0.5090479 O_TOT=     20.2534622 <-- SPRD
 Delta: O_D= -0.3579323E-01 O_OD= -0.5054687E+00 O_TOT= -0.5412619E+00 <-- DLTA
 ------------------------------------------------------------------------------
 Cycle:      2
  WF centre and spread    1  (  2.840292, -0.000016,  2.840737 )     1.53527919
  WF centre and spread    2  (  2.840536, -0.000016, -2.840975 )     1.53794019
  WF centre and spread    3  ( -0.000095,  2.841122, -2.841130 )     1.53977277
  WF centre and spread    4  ( -0.000128, -2.840593, -2.841047 )     1.53749120
  WF centre and spread    5  (  2.840368, -2.840592,  0.000103 )     1.53554287
  WF centre and spread    6  (  2.840451,  2.841120,  0.000088 )     1.53770012
  WF centre and spread    7  ( -0.001174, -2.840036, -2.839658 )     3.62768939
  WF centre and spread    8  ( -2.840197, -2.840034,  0.001877 )     3.63445297
  WF centre and spread    9  ( -2.840179, -0.000869, -2.839590 )     3.63226032
  Sum of centres and spreads (  5.679873, -5.679914,-11.359595 )    20.11812903
 
      2    -0.135E+00     0.3424402098       20.1181290294       0.02  <-- CONV
        O_D=      0.0020636 O_OD=      0.3784648 O_TOT=     20.1181290 <-- SPRD
 Delta: O_D= -0.4750097E-02 O_OD= -0.1305831E+00 O_TOT= -0.1353332E+00 <-- DLTA
 ------------------------------------------------------------------------------
 Cycle:      3
  WF centre and spread    1  (  2.840229, -0.000007,  2.840612 )     1.53380194
  WF centre and spread    2  (  2.840442, -0.000007, -2.840812 )     1.53571590
  WF centre and spread    3  ( -0.000098,  2.840940, -2.840945 )     1.53705073
  WF centre and spread    4  ( -0.000122, -2.840492, -2.840872 )     1.53540276
  WF centre and spread    5  (  2.840296, -2.840488,  0.000082 )     1.53398701
  WF centre and spread    6  (  2.840369,  2.840936,  0.000071 )     1.53554485
  WF centre and spread    7  ( -0.001016, -2.840045, -2.839686 )     3.62533134
  WF centre and spread    8  ( -2.840120, -2.840044,  0.001540 )     3.63030971
  WF centre and spread    9  ( -2.840107, -0.000694, -2.839604 )     3.62872075
  Sum of centres and spreads (  5.679873, -5.679901,-11.359615 )    20.09586500
 
      3    -0.223E-01     0.1902960067       20.0958649963       0.03  <-- CONV
        O_D=      0.0013149 O_OD=      0.3569495 O_TOT=     20.0958650 <-- SPRD
 Delta: O_D= -0.7487531E-03 O_OD= -0.2151528E-01 O_TOT= -0.2226403E-01 <-- DLTA
 ------------------------------------------------------------------------------
 Cycle:      4
  WF centre and spread    1  (  2.840169, -0.000001,  2.840481 )     1.53276309
  WF centre and spread    2  (  2.840347, -0.000001, -2.840639 )     1.53396555
  WF centre and spread    3  ( -0.000097,  2.840746, -2.840748 )     1.53481034
  WF centre and spread    4  ( -0.000112, -2.840388, -2.840686 )     1.53376426
  WF centre and spread    5  (  2.840226, -2.840381,  0.000065 )     1.53287410
  WF centre and spread    6  (  2.840288,  2.840739,  0.000057 )     1.53385431
  WF centre and spread    7  ( -0.000839, -2.840054, -2.839701 )     3.62449696
  WF centre and spread    8  ( -2.840056, -2.840053,  0.001145 )     3.62772989
  WF centre and spread    9  ( -2.840047, -0.000487, -2.839621 )     3.62671125
  Sum of centres and spreads (  5.679880, -5.679881,-11.359648 )    20.08096973
 
      4    -0.149E-01     0.1550275548       20.0809697350       0.04  <-- CONV
        O_D=      0.0008290 O_OD=      0.3425402 O_TOT=     20.0809697 <-- SPRD
 Delta: O_D= -0.4858961E-03 O_OD= -0.1440937E-01 O_TOT= -0.1489526E-01 <-- DLTA
 ------------------------------------------------------------------------------
 Cycle:      5
  WF centre and spread    1  (  2.840108,  0.000001,  2.840343 )     1.53211544
  WF centre and spread    2  (  2.840246,  0.000001, -2.840455 )     1.53276700
  WF centre and spread    3  ( -0.000085,  2.840539, -2.840540 )     1.53326084
  WF centre and spread    4  ( -0.000093, -2.840276, -2.840489 )     1.53267365
  WF centre and spread    5  (  2.840151, -2.840268,  0.000049 )     1.53217206
  WF centre and spread    6  (  2.840201,  2.840530,  0.000044 )     1.53271494
  WF centre and spread    7  ( -0.000630, -2.840052, -2.839720 )     3.62405007
  WF centre and spread    8  ( -2.840008, -2.840051,  0.000738 )     3.62586781
  WF centre and spread    9  ( -2.840002, -0.000285, -2.839652 )     3.62526679
  Sum of centres and spreads (  5.679887, -5.679861,-11.359683 )    20.07088860
 
      5    -0.101E-01     0.1186977685       20.0708886009       0.04  <-- CONV
        O_D=      0.0006968 O_OD=      0.3325912 O_TOT=     20.0708886 <-- SPRD
 Delta: O_D= -0.1322026E-03 O_OD= -0.9948931E-02 O_TOT= -0.1008113E-01 <-- DLTA
 ------------------------------------------------------------------------------
 Cycle:      6
  WF centre and spread    1  (  2.840052,  0.000002,  2.840216 )     1.53162634
  WF centre and spread    2  (  2.840152,  0.000002, -2.840289 )     1.53193574
  WF centre and spread    3  ( -0.000066,  2.840351, -2.840350 )     1.53220369
  WF centre and spread    4  ( -0.000071, -2.840173, -2.840311 )     1.53191385
  WF centre and spread    5  (  2.840082, -2.840163,  0.000033 )     1.53164882
  WF centre and spread    6  (  2.840121,  2.840341,  0.000031 )     1.53192290
  WF centre and spread    7  ( -0.000432, -2.840035, -2.839750 )     3.62384277
  WF centre and spread    8  ( -2.839978, -2.840035,  0.000414 )     3.62470676
  WF centre and spread    9  ( -2.839975, -0.000136, -2.839698 )     3.62438728
  Sum of centres and spreads (  5.679886, -5.679846,-11.359705 )    20.06418817
 
      6    -0.670E-02     0.0990740407       20.0641881740       0.05  <-- CONV
        O_D=      0.0004850 O_OD=      0.3261026 O_TOT=     20.0641882 <-- SPRD
 Delta: O_D= -0.2117556E-03 O_OD= -0.6488671E-02 O_TOT= -0.6700427E-02 <-- DLTA
 ------------------------------------------------------------------------------
 Cycle:      7
  WF centre and spread    1  (  2.840045,  0.000002,  2.840201 )     1.53134617
  WF centre and spread    2  (  2.840141,  0.000002, -2.840270 )     1.53162621
  WF centre and spread    3  ( -0.000063,  2.840330, -2.840329 )     1.53186579
  WF centre and spread    4  ( -0.000067, -2.840161, -2.840292 )     1.53160660
  WF centre and spread    5  (  2.840074, -2.840151,  0.000031 )     1.53136576
  WF centre and spread    6  (  2.840112,  2.840320,  0.000029 )     1.53161253
  WF centre and spread    7  ( -0.000407, -2.840025, -2.839764 )     3.62347824
  WF centre and spread    8  ( -2.839979, -2.840024,  0.000409 )     3.62430719
  WF centre and spread    9  ( -2.839976, -0.000141, -2.839713 )     3.62400936
  Sum of centres and spreads (  5.679880, -5.679848,-11.359699 )    20.06121785
 
      7    -0.297E-02     0.0846610896       20.0612178502       0.06  <-- CONV
        O_D=      0.0003137 O_OD=      0.3233036 O_TOT=     20.0612179 <-- SPRD
 Delta: O_D= -0.1713455E-03 O_OD= -0.2798978E-02 O_TOT= -0.2970324E-02 <-- DLTA
 ------------------------------------------------------------------------------
 Cycle:      8
  WF centre and spread    1  (  2.840028,  0.000002,  2.840161 )     1.53100031
  WF centre and spread    2  (  2.840111,  0.000002, -2.840221 )     1.53120698
  WF centre and spread    3  ( -0.000052,  2.840272, -2.840272 )     1.53137905
  WF centre and spread    4  ( -0.000055, -2.840127, -2.840239 )     1.53118727
  WF centre and spread    5  (  2.840053, -2.840118,  0.000026 )     1.53101507
  WF centre and spread    6  (  2.840086,  2.840263,  0.000024 )     1.53119597
  WF centre and spread    7  ( -0.000341, -2.839999, -2.839797 )     3.62338632
  WF centre and spread    8  ( -2.839982, -2.839999,  0.000385 )     3.62412888
  WF centre and spread    9  ( -2.839980, -0.000146, -2.839753 )     3.62388416
  Sum of centres and spreads (  5.679866, -5.679852,-11.359686 )    20.05838402
 
      8    -0.283E-02     0.0609679806       20.0583840198       0.07  <-- CONV
        O_D=      0.0001604 O_OD=      0.3206230 O_TOT=     20.0583840 <-- SPRD
 Delta: O_D= -0.1532684E-03 O_OD= -0.2680562E-02 O_TOT= -0.2833830E-02 <-- DLTA
 ------------------------------------------------------------------------------
 Cycle:      9
  WF centre and spread    1  (  2.840008,  0.000000,  2.840113 )     1.53073883
  WF centre and spread    2  (  2.840075,  0.000000, -2.840161 )     1.53087932
  WF centre and spread    3  ( -0.000039,  2.840202, -2.840202 )     1.53099714
  WF centre and spread    4  ( -0.000041, -2.840087, -2.840176 )     1.53086536
  WF centre and spread    5  (  2.840028, -2.840079,  0.000020 )     1.53074885
  WF centre and spread    6  (  2.840055,  2.840195,  0.000019 )     1.53087382
  WF centre and spread    7  ( -0.000262, -2.839973, -2.839830 )     3.62340875
  WF centre and spread    8  ( -2.839985, -2.839973,  0.000337 )     3.62406568
  WF centre and spread    9  ( -2.839984, -0.000140, -2.839795 )     3.62386205
  Sum of centres and spreads (  5.679855, -5.679855,-11.359675 )    20.05643980
 
      9    -0.194E-02     0.0528082420       20.0564397955       0.07  <-- CONV
        O_D=      0.0001164 O_OD=      0.3187228 O_TOT=     20.0564398 <-- SPRD
 Delta: O_D= -0.4400502E-04 O_OD= -0.1900219E-02 O_TOT= -0.1944224E-02 <-- DLTA
 ------------------------------------------------------------------------------
 Cycle:     10
  WF centre and spread    1  (  2.839989, -0.000001,  2.840068 )     1.53056571
  WF centre and spread    2  (  2.840041, -0.000001, -2.840104 )     1.53065839
  WF centre and spread    3  ( -0.000028,  2.840136, -2.840136 )     1.53073304
  WF centre and spread    4  ( -0.000029, -2.840049, -2.840115 )     1.53064573
  WF centre and spread    5  (  2.840004, -2.840042,  0.000015 )     1.53057384
  WF centre and spread    6  (  2.840026,  2.840129,  0.000014 )     1.53065400
  WF centre and spread    7  ( -0.000189, -2.839953, -2.839855 )     3.62346092
  WF centre and spread    8  ( -2.839984, -2.839953,  0.000273 )     3.62400781
  WF centre and spread    9  ( -2.839983, -0.000122, -2.839830 )     3.62385024
  Sum of centres and spreads (  5.679848, -5.679855,-11.359671 )    20.05514969
 
     10    -0.129E-02     0.0458629834       20.0551496878       0.08  <-- CONV
        O_D=      0.0000677 O_OD=      0.3174814 O_TOT=     20.0551497 <-- SPRD
 Delta: O_D= -0.4866920E-04 O_OD= -0.1241438E-02 O_TOT= -0.1290108E-02 <-- DLTA
 ------------------------------------------------------------------------------
 Cycle:     11
  WF centre and spread    1  (  2.839968, -0.000001,  2.840017 )     1.53047105
  WF centre and spread    2  (  2.840003, -0.000001, -2.840040 )     1.53051579
  WF centre and spread    3  ( -0.000016,  2.840062, -2.840062 )     1.53055167
  WF centre and spread    4  ( -0.000017, -2.840007, -2.840047 )     1.53051273
  WF centre and spread    5  (  2.839978, -2.840001,  0.000009 )     1.53047671
  WF centre and spread    6  (  2.839993,  2.840056,  0.000009 )     1.53051571
  WF centre and spread    7  ( -0.000110, -2.839938, -2.839874 )     3.62347423
  WF centre and spread    8  ( -2.839977, -2.839938,  0.000178 )     3.62384378
  WF centre and spread    9  ( -2.839977, -0.000085, -2.839862 )     3.62373857
  Sum of centres and spreads (  5.679845, -5.679853,-11.359673 )    20.05410023
 
     11    -0.105E-02     0.0342941424       20.0541002272       0.09  <-- CONV
        O_D=      0.0000567 O_OD=      0.3164429 O_TOT=     20.0541002 <-- SPRD
 Delta: O_D= -0.1100448E-04 O_OD= -0.1038456E-02 O_TOT= -0.1049461E-02 <-- DLTA
 ------------------------------------------------------------------------------
 Cycle:     12
  WF centre and spread    1  (  2.839956, -0.000001,  2.839988 )     1.53044980
  WF centre and spread    2  (  2.839981, -0.000001, -2.840004 )     1.53047215
  WF centre and spread    3  ( -0.000011,  2.840019, -2.840019 )     1.53048956
  WF centre and spread    4  ( -0.000011, -2.839982, -2.840008 )     1.53047048
  WF centre and spread    5  (  2.839963, -2.839978,  0.000006 )     1.53045309
  WF centre and spread    6  (  2.839974,  2.840015,  0.000006 )     1.53047270
  WF centre and spread    7  ( -0.000068, -2.839933, -2.839882 )     3.62346461
  WF centre and spread    8  ( -2.839970, -2.839932,  0.000114 )     3.62369884
  WF centre and spread    9  ( -2.839970, -0.000056, -2.839878 )     3.62363506
  Sum of centres and spreads (  5.679844, -5.679850,-11.359678 )    20.05360630
 
     12    -0.494E-03     0.0306914801       20.0536062969       0.09  <-- CONV
        O_D=      0.0000373 O_OD=      0.3159684 O_TOT=     20.0536063 <-- SPRD
 Delta: O_D= -0.1940860E-04 O_OD= -0.4745217E-03 O_TOT= -0.4939303E-03 <-- DLTA
 ------------------------------------------------------------------------------
 Cycle:     13
  WF centre and spread    1  (  2.839954, -0.000001,  2.839985 )     1.53044738
  WF centre and spread    2  (  2.839978, -0.000001, -2.840000 )     1.53046639
  WF centre and spread    3  ( -0.000011,  2.840015, -2.840015 )     1.53048154
  WF centre and spread    4  ( -0.000011, -2.839980, -2.840005 )     1.53046491
  WF centre and spread    5  (  2.839961, -2.839975,  0.000006 )     1.53045014
  WF centre and spread    6  (  2.839971,  2.840010,  0.000006 )     1.53046698
  WF centre and spread    7  ( -0.000066, -2.839934, -2.839882 )     3.62342819
  WF centre and spread    8  ( -2.839967, -2.839933,  0.000104 )     3.62363232
  WF centre and spread    9  ( -2.839966, -0.000050, -2.839878 )     3.62357653
  Sum of centres and spreads (  5.679845, -5.679849,-11.359679 )    20.05341439
 
     13    -0.192E-03     0.0221807507       20.0534143856       0.10  <-- CONV
        O_D=      0.0000250 O_OD=      0.3157887 O_TOT=     20.0534144 <-- SPRD
 Delta: O_D= -0.1226103E-04 O_OD= -0.1796502E-03 O_TOT= -0.1919113E-03 <-- DLTA
 ------------------------------------------------------------------------------
 Cycle:     14
  WF centre and spread    1  (  2.839951, -0.000001,  2.839979 )     1.53046096
  WF centre and spread    2  (  2.839972, -0.000001, -2.839991 )     1.53047303
  WF centre and spread    3  ( -0.000010,  2.840005, -2.840004 )     1.53048362
  WF centre and spread    4  ( -0.000010, -2.839973, -2.839995 )     1.53047149
  WF centre and spread    5  (  2.839957, -2.839969,  0.000005 )     1.53046270
  WF centre and spread    6  (  2.839966,  2.840001,  0.000005 )     1.53047363
  WF centre and spread    7  ( -0.000060, -2.839935, -2.839883 )     3.62339861
  WF centre and spread    8  ( -2.839960, -2.839935,  0.000082 )     3.62353893
  WF centre and spread    9  ( -2.839960, -0.000038, -2.839880 )     3.62350047
  Sum of centres and spreads (  5.679846, -5.679847,-11.359683 )    20.05326343
 
     14    -0.151E-03     0.0153464995       20.0532634348       0.10  <-- CONV
        O_D=      0.0000096 O_OD=      0.3156532 O_TOT=     20.0532634 <-- SPRD
 Delta: O_D= -0.1542046E-04 O_OD= -0.1355304E-03 O_TOT= -0.1509508E-03 <-- DLTA
 ------------------------------------------------------------------------------
 Cycle:     15
  WF centre and spread    1  (  2.839946, -0.000001,  2.839969 )     1.53047426
  WF centre and spread    2  (  2.839964, -0.000001, -2.839980 )     1.53048035
  WF centre and spread    3  ( -0.000009,  2.839992, -2.839991 )     1.53048721
  WF centre and spread    4  ( -0.000009, -2.839965, -2.839983 )     1.53048039
  WF centre and spread    5  (  2.839951, -2.839962,  0.000004 )     1.53047535
  WF centre and spread    6  (  2.839959,  2.839988,  0.000004 )     1.53048157
  WF centre and spread    7  ( -0.000051, -2.839936, -2.839886 )     3.62338526
  WF centre and spread    8  ( -2.839952, -2.839935,  0.000059 )     3.62346949
  WF centre and spread    9  ( -2.839952, -0.000025, -2.839883 )     3.62344471
  Sum of centres and spreads (  5.679847, -5.679845,-11.359686 )    20.05317860
 
     15    -0.848E-04     0.0106840837       20.0531785982       0.11  <-- CONV
        O_D=      0.0000060 O_OD=      0.3155720 O_TOT=     20.0531786 <-- SPRD
 Delta: O_D= -0.3626151E-05 O_OD= -0.8121046E-04 O_TOT= -0.8483661E-04 <-- DLTA
 ------------------------------------------------------------------------------
 Cycle:     16
  WF centre and spread    1  (  2.839940, -0.000000,  2.839958 )     1.53048149
  WF centre and spread    2  (  2.839954, -0.000000, -2.839966 )     1.53048284
  WF centre and spread    3  ( -0.000008,  2.839975, -2.839974 )     1.53048634
  WF centre and spread    4  ( -0.000008, -2.839955, -2.839968 )     1.53048404
  WF centre and spread    5  (  2.839944, -2.839952,  0.000003 )     1.53048225
  WF centre and spread    6  (  2.839950,  2.839972,  0.000003 )     1.53048444
  WF centre and spread    7  ( -0.000040, -2.839935, -2.839891 )     3.62338415
  WF centre and spread    8  ( -2.839943, -2.839935,  0.000035 )     3.62341806
  WF centre and spread    9  ( -2.839943, -0.000013, -2.839888 )     3.62340612
  Sum of centres and spreads (  5.679847, -5.679843,-11.359689 )    20.05310972
 
     16    -0.689E-04     0.0098327240       20.0531097233       0.12  <-- CONV
        O_D=      0.0000038 O_OD=      0.3155053 O_TOT=     20.0531097 <-- SPRD
 Delta: O_D= -0.2204343E-05 O_OD= -0.6667052E-04 O_TOT= -0.6887486E-04 <-- DLTA
 ------------------------------------------------------------------------------
 Cycle:     17
  WF centre and spread    1  (  2.839935, -0.000000,  2.839948 )     1.53047827
  WF centre and spread    2  (  2.839945, -0.000000, -2.839953 )     1.53047738
  WF centre and spread    3  ( -0.000006,  2.839960, -2.839959 )     1.53047900
  WF centre and spread    4  ( -0.000006, -2.839946, -2.839955 )     1.53047892
  WF centre and spread    5  (  2.839938, -2.839943,  0.000002 )     1.53047896
  WF centre and spread    6  (  2.839942,  2.839958,  0.000002 )     1.53047910
  WF centre and spread    7  ( -0.000029, -2.839933, -2.839898 )     3.62339414
  WF centre and spread    8  ( -2.839936, -2.839933,  0.000019 )     3.62340295
  WF centre and spread    9  ( -2.839936, -0.000006, -2.839895 )     3.62339825
  Sum of centres and spreads (  5.679847, -5.679843,-11.359689 )    20.05306698
 
     17    -0.427E-04     0.0081185598       20.0530669761       0.12  <-- CONV
        O_D=      0.0000029 O_OD=      0.3154634 O_TOT=     20.0530670 <-- SPRD
 Delta: O_D= -0.8529230E-06 O_OD= -0.4189422E-04 O_TOT= -0.4274714E-04 <-- DLTA
 ------------------------------------------------------------------------------
 Cycle:     18
  WF centre and spread    1  (  2.839931, -0.000000,  2.839940 )     1.53046832
  WF centre and spread    2  (  2.839939, -0.000000, -2.839944 )     1.53046696
  WF centre and spread    3  ( -0.000004,  2.839949, -2.839948 )     1.53046757
  WF centre and spread    4  ( -0.000004, -2.839939, -2.839945 )     1.53046821
  WF centre and spread    5  (  2.839933, -2.839937,  0.000001 )     1.53046911
  WF centre and spread    6  (  2.839936,  2.839947,  0.000001 )     1.53046858
  WF centre and spread    7  ( -0.000021, -2.839931, -2.839904 )     3.62340980
  WF centre and spread    8  ( -2.839931, -2.839930,  0.000011 )     3.62341286
  WF centre and spread    9  ( -2.839931, -0.000003, -2.839901 )     3.62341100
  Sum of centres and spreads (  5.679847, -5.679843,-11.359689 )    20.05304243
 
     18    -0.245E-04     0.0062929142       20.0530424337       0.13  <-- CONV
        O_D=      0.0000024 O_OD=      0.3154394 O_TOT=     20.0530424 <-- SPRD
 Delta: O_D= -0.5088027E-06 O_OD= -0.2403368E-04 O_TOT= -0.2454248E-04 <-- DLTA
 ------------------------------------------------------------------------------
 Cycle:     19
  WF centre and spread    1  (  2.839930, -0.000000,  2.839939 )     1.53046359
  WF centre and spread    2  (  2.839938, -0.000000, -2.839943 )     1.53046254
  WF centre and spread    3  ( -0.000004,  2.839948, -2.839947 )     1.53046312
  WF centre and spread    4  ( -0.000004, -2.839938, -2.839944 )     1.53046356
  WF centre and spread    5  (  2.839932, -2.839936,  0.000001 )     1.53046443
  WF centre and spread    6  (  2.839936,  2.839946,  0.000001 )     1.53046407
  WF centre and spread    7  ( -0.000019, -2.839930, -2.839905 )     3.62341205
  WF centre and spread    8  ( -2.839931, -2.839929,  0.000011 )     3.62341907
  WF centre and spread    9  ( -2.839931, -0.000004, -2.839902 )     3.62341660
  Sum of centres and spreads (  5.679846, -5.679843,-11.359688 )    20.05302903
 
     19    -0.134E-04     0.0058817021       20.0530290294       0.13  <-- CONV
        O_D=      0.0000014 O_OD=      0.3154270 O_TOT=     20.0530290 <-- SPRD
 Delta: O_D= -0.1011705E-05 O_OD= -0.1239256E-04 O_TOT= -0.1340427E-04 <-- DLTA
 ------------------------------------------------------------------------------
 Cycle:     20
  WF centre and spread    1  (  2.839929, -0.000000,  2.839937 )     1.53045484
  WF centre and spread    2  (  2.839936, -0.000000, -2.839940 )     1.53045445
  WF centre and spread    3  ( -0.000003,  2.839945, -2.839944 )     1.53045499
  WF centre and spread    4  ( -0.000003, -2.839936, -2.839941 )     1.53045502
  WF centre and spread    5  (  2.839931, -2.839934,  0.000001 )     1.53045582
  WF centre and spread    6  (  2.839934,  2.839943,  0.000001 )     1.53045583
  WF centre and spread    7  ( -0.000017, -2.839928, -2.839908 )     3.62342052
  WF centre and spread    8  ( -2.839931, -2.839928,  0.000012 )     3.62343562
  WF centre and spread    9  ( -2.839931, -0.000005, -2.839905 )     3.62343197
  Sum of centres and spreads (  5.679845, -5.679844,-11.359687 )    20.05301907
 
     20    -0.996E-05     0.0038401217       20.0530190699       0.14  <-- CONV
        O_D=      0.0000007 O_OD=      0.3154178 O_TOT=     20.0530191 <-- SPRD
 Delta: O_D= -0.7419393E-06 O_OD= -0.9217603E-05 O_TOT= -0.9959543E-05 <-- DLTA
 ------------------------------------------------------------------------------
 Cycle:     21
  WF centre and spread    1  (  2.839928, -0.000000,  2.839935 )     1.53044669
  WF centre and spread    2  (  2.839934, -0.000000, -2.839937 )     1.53044694
  WF centre and spread    3  ( -0.000003,  2.839941, -2.839940 )     1.53044746
  WF centre and spread    4  ( -0.000003, -2.839933, -2.839938 )     1.53044711
  WF centre and spread    5  (  2.839930, -2.839932,  0.000000 )     1.53044781
  WF centre and spread    6  (  2.839932,  2.839940,  0.000000 )     1.53044819
  WF centre and spread    7  ( -0.000014, -2.839926, -2.839911 )     3.62343000
  WF centre and spread    8  ( -2.839930, -2.839926,  0.000012 )     3.62345149
  WF centre and spread    9  ( -2.839930, -0.000007, -2.839908 )     3.62344706
  Sum of centres and spreads (  5.679845, -5.679844,-11.359686 )    20.05301275
 
     21    -0.632E-05     0.0030874271       20.0530127495       0.15  <-- CONV
        O_D=      0.0000003 O_OD=      0.3154118 O_TOT=     20.0530127 <-- SPRD
 Delta: O_D= -0.3661913E-06 O_OD= -0.5954152E-05 O_TOT= -0.6320343E-05 <-- DLTA
 ------------------------------------------------------------------------------
 Cycle:     22
  WF centre and spread    1  (  2.839927, -0.000000,  2.839932 )     1.53044157
  WF centre and spread    2  (  2.839932, -0.000000, -2.839934 )     1.53044217
  WF centre and spread    3  ( -0.000002,  2.839938, -2.839936 )     1.53044263
  WF centre and spread    4  ( -0.000002, -2.839931, -2.839935 )     1.53044211
  WF centre and spread    5  (  2.839928, -2.839930,  0.000000 )     1.53044279
  WF centre and spread    6  (  2.839930,  2.839936,  0.000000 )     1.53044333
  WF centre and spread    7  ( -0.000011, -2.839925, -2.839913 )     3.62343743
  WF centre and spread    8  ( -2.839929, -2.839924,  0.000011 )     3.62346059
  WF centre and spread    9  ( -2.839929, -0.000007, -2.839911 )     3.62345628
  Sum of centres and spreads (  5.679844, -5.679844,-11.359686 )    20.05300891
 
     22    -0.384E-05     0.0024327965       20.0530089101       0.15  <-- CONV
        O_D=      0.0000002 O_OD=      0.3154081 O_TOT=     20.0530089 <-- SPRD
 Delta: O_D= -0.1023977E-06 O_OD= -0.3737051E-05 O_TOT= -0.3839449E-05 <-- DLTA
 ------------------------------------------------------------------------------
 Cycle:     23
  WF centre and spread    1  (  2.839926, -0.000000,  2.839929 )     1.53043926
  WF centre and spread    2  (  2.839929, -0.000000, -2.839930 )     1.53043986
  WF centre and spread    3  ( -0.000001,  2.839933, -2.839932 )     1.53044019
  WF centre and spread    4  ( -0.000001, -2.839928, -2.839931 )     1.53043975
  WF centre and spread    5  (  2.839926, -2.839927, -0.000000 )     1.53044052
  WF centre and spread    6  (  2.839928,  2.839932, -0.000000 )     1.53044102
  WF centre and spread    7  ( -0.000008, -2.839924, -2.839916 )     3.62344326
  WF centre and spread    8  ( -2.839927, -2.839923,  0.000008 )     3.62346249
  WF centre and spread    9  ( -2.839927, -0.000006, -2.839914 )     3.62345947
  Sum of centres and spreads (  5.679844, -5.679844,-11.359686 )    20.05300582
 
     23    -0.309E-05     0.0019219291       20.0530058160       0.16  <-- CONV
        O_D=      0.0000003 O_OD=      0.3154049 O_TOT=     20.0530058 <-- SPRD
 Delta: O_D=  0.9332796E-07 O_OD= -0.3187439E-05 O_TOT= -0.3094111E-05 <-- DLTA
 ------------------------------------------------------------------------------
 Cycle:     24
  WF centre and spread    1  (  2.839924, -0.000000,  2.839927 )     1.53043958
  WF centre and spread    2  (  2.839927, -0.000001, -2.839927 )     1.53043998
  WF centre and spread    3  ( -0.000001,  2.839930, -2.839928 )     1.53044015
  WF centre and spread    4  ( -0.000001, -2.839926, -2.839928 )     1.53043990
  WF centre and spread    5  (  2.839925, -2.839925, -0.000000 )     1.53044083
  WF centre and spread    6  (  2.839926,  2.839929, -0.000000 )     1.53044114
  WF centre and spread    7  ( -0.000005, -2.839923, -2.839917 )     3.62344600
  WF centre and spread    8  ( -2.839926, -2.839922,  0.000005 )     3.62345878
  WF centre and spread    9  ( -2.839926, -0.000004, -2.839916 )     3.62345748
  Sum of centres and spreads (  5.679844, -5.679844,-11.359686 )    20.05300383
 
     24    -0.198E-05     0.0018316997       20.0530038348       0.16  <-- CONV
        O_D=      0.0000002 O_OD=      0.3154030 O_TOT=     20.0530038 <-- SPRD
 Delta: O_D= -0.6482746E-07 O_OD= -0.1916362E-05 O_TOT= -0.1981189E-05 <-- DLTA
 ------------------------------------------------------------------------------
 Cycle:     25
  WF centre and spread    1  (  2.839924, -0.000000,  2.839927 )     1.53044045
  WF centre and spread    2  (  2.839927, -0.000000, -2.839927 )     1.53044073
  WF centre and spread    3  ( -0.000001,  2.839929, -2.839928 )     1.53044086
  WF centre and spread    4  ( -0.000001, -2.839926, -2.839927 )     1.53044069
  WF centre and spread    5  (  2.839925, -2.839925, -0.000000 )     1.53044168
  WF centre and spread    6  (  2.839926,  2.839928, -0.000000 )     1.53044191
  WF centre and spread    7  ( -0.000005, -2.839923, -2.839917 )     3.62344519
  WF centre and spread    8  ( -2.839925, -2.839922,  0.000004 )     3.62345602
  WF centre and spread    9  ( -2.839925, -0.000004, -2.839917 )     3.62345518
  Sum of centres and spreads (  5.679844, -5.679844,-11.359686 )    20.05300271
 
     25    -0.112E-05     0.0017130140       20.0530027122       0.17  <-- CONV
        O_D=      0.0000001 O_OD=      0.3154020 O_TOT=     20.0530027 <-- SPRD
 Delta: O_D= -0.9099608E-07 O_OD= -0.1031526E-05 O_TOT= -0.1122522E-05 <-- DLTA
 ------------------------------------------------------------------------------
 Cycle:     26
  WF centre and spread    1  (  2.839924, -0.000000,  2.839926 )     1.53044221
  WF centre and spread    2  (  2.839926, -0.000000, -2.839926 )     1.53044226
  WF centre and spread    3  ( -0.000001,  2.839929, -2.839927 )     1.53044230
  WF centre and spread    4  ( -0.000001, -2.839926, -2.839927 )     1.53044230
  WF centre and spread    5  (  2.839925, -2.839925, -0.000000 )     1.53044341
  WF centre and spread    6  (  2.839925,  2.839928, -0.000000 )     1.53044346
  WF centre and spread    7  ( -0.000005, -2.839923, -2.839917 )     3.62344400
  WF centre and spread    8  ( -2.839925, -2.839923,  0.000003 )     3.62345097
  WF centre and spread    9  ( -2.839925, -0.000003, -2.839917 )     3.62345103
  Sum of centres and spreads (  5.679844, -5.679844,-11.359687 )    20.05300193
 
     26    -0.778E-06     0.0011303939       20.0530019340       0.18  <-- CONV
        O_D=      0.0000000 O_OD=      0.3154013 O_TOT=     20.0530019 <-- SPRD
 Delta: O_D= -0.9564631E-07 O_OD= -0.6825955E-06 O_TOT= -0.7782418E-06 <-- DLTA
 ------------------------------------------------------------------------------
 Cycle:     27
  WF centre and spread    1  (  2.839924, -0.000000,  2.839926 )     1.53044364
  WF centre and spread    2  (  2.839926, -0.000000, -2.839926 )     1.53044348
  WF centre and spread    3  ( -0.000001,  2.839928, -2.839927 )     1.53044345
  WF centre and spread    4  ( -0.000001, -2.839925, -2.839926 )     1.53044361
  WF centre and spread    5  (  2.839924, -2.839924, -0.000000 )     1.53044481
  WF centre and spread    6  (  2.839925,  2.839927, -0.000000 )     1.53044471
  WF centre and spread    7  ( -0.000004, -2.839923, -2.839918 )     3.62344336
  WF centre and spread    8  ( -2.839924, -2.839923,  0.000001 )     3.62344680
  WF centre and spread    9  ( -2.839924, -0.000002, -2.839917 )     3.62344767
  Sum of centres and spreads (  5.679844, -5.679843,-11.359687 )    20.05300153
 
     27    -0.402E-06     0.0007619144       20.0530015320       0.18  <-- CONV
        O_D=      0.0000000 O_OD=      0.3154009 O_TOT=     20.0530015 <-- SPRD
 Delta: O_D= -0.2331197E-07 O_OD= -0.3786871E-06 O_TOT= -0.4019991E-06 <-- DLTA
 ------------------------------------------------------------------------------
 Cycle:     28
  WF centre and spread    1  (  2.839924, -0.000000,  2.839925 )     1.53044463
  WF centre and spread    2  (  2.839925, -0.000000, -2.839925 )     1.53044432
  WF centre and spread    3  ( -0.000001,  2.839927, -2.839925 )     1.53044422
  WF centre and spread    4  ( -0.000001, -2.839924, -2.839925 )     1.53044451
  WF centre and spread    5  (  2.839924, -2.839924, -0.000000 )     1.53044578
  WF centre and spread    6  (  2.839924,  2.839926, -0.000000 )     1.53044556
  WF centre and spread    7  ( -0.000004, -2.839923, -2.839918 )     3.62344341
  WF centre and spread    8  ( -2.839924, -2.839922,  0.000000 )     3.62344357
  WF centre and spread    9  ( -2.839924, -0.000002, -2.839918 )     3.62344522
  Sum of centres and spreads (  5.679844, -5.679843,-11.359687 )    20.05300122
 
     28    -0.309E-06     0.0006518110       20.0530012230       0.19  <-- CONV
        O_D=      0.0000000 O_OD=      0.3154006 O_TOT=     20.0530012 <-- SPRD
 Delta: O_D= -0.3763337E-08 O_OD= -0.3052120E-06 O_TOT= -0.3089753E-06 <-- DLTA
 ------------------------------------------------------------------------------
 Cycle:     29
  WF centre and spread    1  (  2.839923, -0.000000,  2.839924 )     1.53044479
  WF centre and spread    2  (  2.839924, -0.000000, -2.839924 )     1.53044443
  WF centre and spread    3  ( -0.000001,  2.839926, -2.839924 )     1.53044430
  WF centre and spread    4  ( -0.000001, -2.839924, -2.839924 )     1.53044464
  WF centre and spread    5  (  2.839924, -2.839923, -0.000000 )     1.53044595
  WF centre and spread    6  (  2.839924,  2.839925, -0.000000 )     1.53044567
  WF centre and spread    7  ( -0.000003, -2.839923, -2.839919 )     3.62344418
  WF centre and spread    8  ( -2.839923, -2.839922, -0.000001 )     3.62344246
  WF centre and spread    9  ( -2.839923, -0.000001, -2.839919 )     3.62344461
  Sum of centres and spreads (  5.679844, -5.679843,-11.359687 )    20.05300102
 
     29    -0.206E-06     0.0005598644       20.0530010173       0.19  <-- CONV
        O_D=      0.0000000 O_OD=      0.3154004 O_TOT=     20.0530010 <-- SPRD
 Delta: O_D=  0.3258585E-10 O_OD= -0.2057244E-06 O_TOT= -0.2056918E-06 <-- DLTA
 ------------------------------------------------------------------------------
 Cycle:     30
  WF centre and spread    1  (  2.839923, -0.000000,  2.839924 )     1.53044429
  WF centre and spread    2  (  2.839924, -0.000000, -2.839923 )     1.53044397
  WF centre and spread    3  ( -0.000001,  2.839925, -2.839923 )     1.53044384
  WF centre and spread    4  ( -0.000001, -2.839923, -2.839924 )     1.53044415
  WF centre and spread    5  (  2.839923, -2.839923, -0.000000 )     1.53044546
  WF centre and spread    6  (  2.839923,  2.839924, -0.000000 )     1.53044520
  WF centre and spread    7  ( -0.000002, -2.839922, -2.839919 )     3.62344541
  WF centre and spread    8  ( -2.839922, -2.839922, -0.000001 )     3.62344310
  WF centre and spread    9  ( -2.839922, -0.000001, -2.839919 )     3.62344547
  Sum of centres and spreads (  5.679844, -5.679843,-11.359687 )    20.05300089
 
     30    -0.132E-06     0.0004493173       20.0530008853       0.20  <-- CONV
        O_D=      0.0000000 O_OD=      0.3154002 O_TOT=     20.0530009 <-- SPRD
 Delta: O_D= -0.1129181E-08 O_OD= -0.1309263E-06 O_TOT= -0.1320554E-06 <-- DLTA
 ------------------------------------------------------------------------------
 Cycle:     31
  WF centre and spread    1  (  2.839923, -0.000000,  2.839924 )     1.53044401
  WF centre and spread    2  (  2.839924, -0.000000, -2.839923 )     1.53044372
  WF centre and spread    3  ( -0.000001,  2.839925, -2.839923 )     1.53044360
  WF centre and spread    4  ( -0.000001, -2.839923, -2.839923 )     1.53044389
  WF centre and spread    5  (  2.839923, -2.839923, -0.000000 )     1.53044518
  WF centre and spread    6  (  2.839923,  2.839924, -0.000000 )     1.53044495
  WF centre and spread    7  ( -0.000002, -2.839922, -2.839919 )     3.62344571
  WF centre and spread    8  ( -2.839922, -2.839922, -0.000001 )     3.62344371
  WF centre and spread    9  ( -2.839922, -0.000001, -2.839919 )     3.62344603
  Sum of centres and spreads (  5.679844, -5.679843,-11.359687 )    20.05300080
 
     31    -0.819E-07     0.0004629538       20.0530008034       0.21  <-- CONV
        O_D=      0.0000000 O_OD=      0.3154002 O_TOT=     20.0530008 <-- SPRD
 Delta: O_D= -0.7619735E-08 O_OD= -0.7427933E-07 O_TOT= -0.8189906E-07 <-- DLTA
 ------------------------------------------------------------------------------
 Cycle:     32
  WF centre and spread    1  (  2.839923, -0.000000,  2.839923 )     1.53044339
  WF centre and spread    2  (  2.839924, -0.000000, -2.839923 )     1.53044317
  WF centre and spread    3  ( -0.000001,  2.839924, -2.839923 )     1.53044308
  WF centre and spread    4  ( -0.000001, -2.839923, -2.839923 )     1.53044331
  WF centre and spread    5  (  2.839923, -2.839923, -0.000000 )     1.53044458
  WF centre and spread    6  (  2.839923,  2.839924, -0.000000 )     1.53044440
  WF centre and spread    7  ( -0.000002, -2.839922, -2.839920 )     3.62344643
  WF centre and spread    8  ( -2.839922, -2.839922, -0.000001 )     3.62344508
  WF centre and spread    9  ( -2.839922, -0.000001, -2.839920 )     3.62344730
  Sum of centres and spreads (  5.679844, -5.679843,-11.359687 )    20.05300074
 
     32    -0.600E-07     0.0002949667       20.0530007434       0.21  <-- CONV
        O_D=      0.0000000 O_OD=      0.3154001 O_TOT=     20.0530007 <-- SPRD
 Delta: O_D= -0.5401217E-08 O_OD= -0.5457727E-07 O_TOT= -0.5997849E-07 <-- DLTA
 ------------------------------------------------------------------------------
 Cycle:     33
  WF centre and spread    1  (  2.839923, -0.000000,  2.839923 )     1.53044281
  WF centre and spread    2  (  2.839924, -0.000000, -2.839923 )     1.53044266
  WF centre and spread    3  ( -0.000001,  2.839924, -2.839923 )     1.53044258
  WF centre and spread    4  ( -0.000001, -2.839923, -2.839923 )     1.53044276
  WF centre and spread    5  (  2.839923, -2.839922, -0.000000 )     1.53044400
  WF centre and spread    6  (  2.839923,  2.839924, -0.000000 )     1.53044387
  WF centre and spread    7  ( -0.000002, -2.839922, -2.839920 )     3.62344719
  WF centre and spread    8  ( -2.839922, -2.839922, -0.000001 )     3.62344634
  WF centre and spread    9  ( -2.839922, -0.000002, -2.839920 )     3.62344849
  Sum of centres and spreads (  5.679844, -5.679843,-11.359687 )    20.05300070
 
     33    -0.385E-07     0.0002469372       20.0530007049       0.22  <-- CONV
        O_D=      0.0000000 O_OD=      0.3154001 O_TOT=     20.0530007 <-- SPRD
 Delta: O_D= -0.2997547E-08 O_OD= -0.3554290E-07 O_TOT= -0.3854045E-07 <-- DLTA
 ------------------------------------------------------------------------------
 Cycle:     34
  WF centre and spread    1  (  2.839923, -0.000000,  2.839923 )     1.53044245
  WF centre and spread    2  (  2.839923, -0.000000, -2.839922 )     1.53044234
  WF centre and spread    3  ( -0.000001,  2.839924, -2.839923 )     1.53044227
  WF centre and spread    4  ( -0.000001, -2.839923, -2.839923 )     1.53044243
  WF centre and spread    5  (  2.839923, -2.839922, -0.000000 )     1.53044365
  WF centre and spread    6  (  2.839923,  2.839923, -0.000000 )     1.53044354
  WF centre and spread    7  ( -0.000002, -2.839922, -2.839920 )     3.62344776
  WF centre and spread    8  ( -2.839922, -2.839921, -0.000001 )     3.62344704
  WF centre and spread    9  ( -2.839922, -0.000002, -2.839920 )     3.62344919
  Sum of centres and spreads (  5.679844, -5.679843,-11.359687 )    20.05300068
 
     34    -0.230E-07     0.0001878137       20.0530006818       0.22  <-- CONV
        O_D=      0.0000000 O_OD=      0.3154001 O_TOT=     20.0530007 <-- SPRD
 Delta: O_D= -0.2913737E-09 O_OD= -0.2273193E-07 O_TOT= -0.2302330E-07 <-- DLTA
 ------------------------------------------------------------------------------
 Cycle:     35
  WF centre and spread    1  (  2.839922, -0.000000,  2.839923 )     1.53044230
  WF centre and spread    2  (  2.839923, -0.000000, -2.839922 )     1.53044220
  WF centre and spread    3  ( -0.000001,  2.839923, -2.839922 )     1.53044213
  WF centre and spread    4  ( -0.000001, -2.839922, -2.839922 )     1.53044228
  WF centre and spread    5  (  2.839923, -2.839922, -0.000000 )     1.53044350
  WF centre and spread    6  (  2.839923,  2.839923, -0.000000 )     1.53044340
  WF centre and spread    7  ( -0.000002, -2.839922, -2.839920 )     3.62344820
  WF centre and spread    8  ( -2.839922, -2.839921, -0.000001 )     3.62344720
  WF centre and spread    9  ( -2.839922, -0.000002, -2.839921 )     3.62344945
  Sum of centres and spreads (  5.679844, -5.679843,-11.359687 )    20.05300066
 
     35    -0.185E-07     0.0001526061       20.0530006633       0.23  <-- CONV
        O_D=      0.0000000 O_OD=      0.3154000 O_TOT=     20.0530007 <-- SPRD
 Delta: O_D=  0.6435500E-09 O_OD= -0.1916371E-07 O_TOT= -0.1852016E-07 <-- DLTA
 ------------------------------------------------------------------------------
 Cycle:     36
  WF centre and spread    1  (  2.839922, -0.000000,  2.839923 )     1.53044234
  WF centre and spread    2  (  2.839923, -0.000000, -2.839922 )     1.53044223
  WF centre and spread    3  ( -0.000001,  2.839923, -2.839922 )     1.53044216
  WF centre and spread    4  ( -0.000001, -2.839922, -2.839922 )     1.53044231
  WF centre and spread    5  (  2.839922, -2.839922, -0.000000 )     1.53044354
  WF centre and spread    6  (  2.839922,  2.839923, -0.000000 )     1.53044343
  WF centre and spread    7  ( -0.000002, -2.839922, -2.839921 )     3.62344841
  WF centre and spread    8  ( -2.839922, -2.839921, -0.000001 )     3.62344693
  WF centre and spread    9  ( -2.839922, -0.000002, -2.839921 )     3.62344930
  Sum of centres and spreads (  5.679844, -5.679843,-11.359687 )    20.05300065
 
     36    -0.121E-07     0.0001413453       20.0530006513       0.24  <-- CONV
        O_D=      0.0000000 O_OD=      0.3154000 O_TOT=     20.0530007 <-- SPRD
 Delta: O_D= -0.3154776E-09 O_OD= -0.1173478E-07 O_TOT= -0.1205025E-07 <-- DLTA
 ------------------------------------------------------------------------------
 Cycle:     37
  WF centre and spread    1  (  2.839922, -0.000000,  2.839923 )     1.53044241
  WF centre and spread    2  (  2.839923, -0.000000, -2.839922 )     1.53044229
  WF centre and spread    3  ( -0.000001,  2.839923, -2.839922 )     1.53044222
  WF centre and spread    4  ( -0.000001, -2.839922, -2.839922 )     1.53044238
  WF centre and spread    5  (  2.839922, -2.839922, -0.000000 )     1.53044361
  WF centre and spread    6  (  2.839922,  2.839923, -0.000000 )     1.53044349
  WF centre and spread    7  ( -0.000002, -2.839922, -2.839921 )     3.62344837
  WF centre and spread    8  ( -2.839922, -2.839921, -0.000001 )     3.62344674
  WF centre and spread    9  ( -2.839922, -0.000001, -2.839921 )     3.62344914
  Sum of centres and spreads (  5.679844, -5.679843,-11.359687 )    20.05300064
 
     37    -0.735E-08     0.0001407107       20.0530006439       0.24  <-- CONV
        O_D=      0.0000000 O_OD=      0.3154000 O_TOT=     20.0530006 <-- SPRD
 Delta: O_D= -0.7650249E-09 O_OD= -0.6588705E-08 O_TOT= -0.7353734E-08 <-- DLTA
 ------------------------------------------------------------------------------
 Cycle:     38
  WF centre and spread    1  (  2.839922, -0.000000,  2.839923 )     1.53044253
  WF centre and spread    2  (  2.839923, -0.000000, -2.839922 )     1.53044240
  WF centre and spread    3  ( -0.000001,  2.839923, -2.839922 )     1.53044232
  WF centre and spread    4  ( -0.000001, -2.839922, -2.839922 )     1.53044249
  WF centre and spread    5  (  2.839922, -2.839922, -0.000000 )     1.53044373
  WF centre and spread    6  (  2.839922,  2.839923, -0.000000 )     1.53044360
  WF centre and spread    7  ( -0.000002, -2.839922, -2.839921 )     3.62344829
  WF centre and spread    8  ( -2.839922, -2.839921, -0.000001 )     3.62344641
  WF centre and spread    9  ( -2.839922, -0.000001, -2.839921 )     3.62344886
  Sum of centres and spreads (  5.679844, -5.679843,-11.359687 )    20.05300064
 
     38    -0.497E-08     0.0000892775       20.0530006389       0.25  <-- CONV
        O_D=      0.0000000 O_OD=      0.3154000 O_TOT=     20.0530006 <-- SPRD
 Delta: O_D= -0.7184253E-09 O_OD= -0.4248753E-08 O_TOT= -0.4967173E-08 <-- DLTA
 ------------------------------------------------------------------------------
 Cycle:     39
  WF centre and spread    1  (  2.839922, -0.000000,  2.839923 )     1.53044268
  WF centre and spread    2  (  2.839923, -0.000000, -2.839922 )     1.53044253
  WF centre and spread    3  ( -0.000001,  2.839923, -2.839922 )     1.53044245
  WF centre and spread    4  ( -0.000001, -2.839922, -2.839922 )     1.53044263
  WF centre and spread    5  (  2.839922, -2.839922, -0.000000 )     1.53044387
  WF centre and spread    6  (  2.839922,  2.839923, -0.000000 )     1.53044373
  WF centre and spread    7  ( -0.000002, -2.839922, -2.839921 )     3.62344822
  WF centre and spread    8  ( -2.839921, -2.839921, -0.000001 )     3.62344599
  WF centre and spread    9  ( -2.839921, -0.000001, -2.839921 )     3.62344853
  Sum of centres and spreads (  5.679844, -5.679843,-11.359687 )    20.05300064
 
     39    -0.252E-08     0.0000580081       20.0530006364       0.25  <-- CONV
        O_D=      0.0000000 O_OD=      0.3154000 O_TOT=     20.0530006 <-- SPRD
 Delta: O_D= -0.5751782E-10 O_OD= -0.2462983E-08 O_TOT= -0.2520501E-08 <-- DLTA
 ------------------------------------------------------------------------------
 Cycle:     40
  WF centre and spread    1  (  2.839922, -0.000000,  2.839923 )     1.53044283
  WF centre and spread    2  (  2.839923, -0.000000, -2.839922 )     1.53044266
  WF centre and spread    3  ( -0.000001,  2.839923, -2.839922 )     1.53044257
  WF centre and spread    4  ( -0.000001, -2.839922, -2.839922 )     1.53044277
  WF centre and spread    5  (  2.839922, -2.839922, -0.000001 )     1.53044402
  WF centre and spread    6  (  2.839922,  2.839923, -0.000000 )     1.53044386
  WF centre and spread    7  ( -0.000002, -2.839922, -2.839921 )     3.62344820
  WF centre and spread    8  ( -2.839921, -2.839921, -0.000002 )     3.62344554
  WF centre and spread    9  ( -2.839921, -0.000001, -2.839921 )     3.62344818
  Sum of centres and spreads (  5.679844, -5.679843,-11.359687 )    20.05300063
 
     40    -0.159E-08     0.0000717987       20.0530006348       0.26  <-- CONV
        O_D=      0.0000000 O_OD=      0.3154000 O_TOT=     20.0530006 <-- SPRD
 Delta: O_D=  0.4900407E-10 O_OD= -0.1637433E-08 O_TOT= -0.1588432E-08 <-- DLTA
 ------------------------------------------------------------------------------
 Cycle:     41
  WF centre and spread    1  (  2.839922, -0.000000,  2.839922 )     1.53044285
  WF centre and spread    2  (  2.839923, -0.000000, -2.839922 )     1.53044268
  WF centre and spread    3  ( -0.000001,  2.839923, -2.839922 )     1.53044258
  WF centre and spread    4  ( -0.000001, -2.839922, -2.839922 )     1.53044279
  WF centre and spread    5  (  2.839922, -2.839922, -0.000001 )     1.53044404
  WF centre and spread    6  (  2.839922,  2.839922, -0.000000 )     1.53044388
  WF centre and spread    7  ( -0.000002, -2.839922, -2.839921 )     3.62344824
  WF centre and spread    8  ( -2.839921, -2.839921, -0.000002 )     3.62344546
  WF centre and spread    9  ( -2.839921, -0.000001, -2.839921 )     3.62344812
  Sum of centres and spreads (  5.679844, -5.679843,-11.359687 )    20.05300063
 
     41    -0.134E-08     0.0000637658       20.0530006335       0.27  <-- CONV
        O_D=      0.0000000 O_OD=      0.3154000 O_TOT=     20.0530006 <-- SPRD
 Delta: O_D=  0.4771637E-10 O_OD= -0.1385902E-08 O_TOT= -0.1338186E-08 <-- DLTA
 ------------------------------------------------------------------------------
 Cycle:     42
  WF centre and spread    1  (  2.839922, -0.000000,  2.839922 )     1.53044279
  WF centre and spread    2  (  2.839923, -0.000000, -2.839922 )     1.53044263
  WF centre and spread    3  ( -0.000001,  2.839923, -2.839921 )     1.53044253
  WF centre and spread    4  ( -0.000001, -2.839922, -2.839922 )     1.53044273
  WF centre and spread    5  (  2.839922, -2.839922, -0.000001 )     1.53044398
  WF centre and spread    6  (  2.839922,  2.839922, -0.000000 )     1.53044382
  WF centre and spread    7  ( -0.000002, -2.839922, -2.839921 )     3.62344835
  WF centre and spread    8  ( -2.839921, -2.839921, -0.000002 )     3.62344556
  WF centre and spread    9  ( -2.839921, -0.000001, -2.839921 )     3.62344823
  Sum of centres and spreads (  5.679844, -5.679843,-11.359687 )    20.05300063
 
     42    -0.128E-08     0.0000465927       20.0530006322       0.27  <-- CONV
        O_D=      0.0000000 O_OD=      0.3154000 O_TOT=     20.0530006 <-- SPRD
 Delta: O_D= -0.3139935E-10 O_OD= -0.1244381E-08 O_TOT= -0.1275779E-08 <-- DLTA
 ------------------------------------------------------------------------------
 Cycle:     43
  WF centre and spread    1  (  2.839922, -0.000000,  2.839922 )     1.53044275
  WF centre and spread    2  (  2.839923, -0.000000, -2.839922 )     1.53044259
  WF centre and spread    3  ( -0.000001,  2.839923, -2.839921 )     1.53044250
  WF centre and spread    4  ( -0.000001, -2.839922, -2.839922 )     1.53044270
  WF centre and spread    5  (  2.839922, -2.839922, -0.000001 )     1.53044394
  WF centre and spread    6  (  2.839922,  2.839922, -0.000000 )     1.53044379
  WF centre and spread    7  ( -0.000002, -2.839922, -2.839921 )     3.62344839
  WF centre and spread    8  ( -2.839921, -2.839921, -0.000002 )     3.62344566
  WF centre and spread    9  ( -2.839921, -0.000001, -2.839921 )     3.62344832
  Sum of centres and spreads (  5.679844, -5.679843,-11.359687 )    20.05300063
 
     43    -0.102E-08     0.0000455718       20.0530006312       0.28  <-- CONV
        O_D=      0.0000000 O_OD=      0.3154000 O_TOT=     20.0530006 <-- SPRD
 Delta: O_D= -0.1200357E-09 O_OD= -0.8972462E-09 O_TOT= -0.1017280E-08 <-- DLTA
 ------------------------------------------------------------------------------
 Cycle:     44
  WF centre and spread    1  (  2.839922, -0.000000,  2.839922 )     1.53044268
  WF centre and spread    2  (  2.839923, -0.000000, -2.839922 )     1.53044253
  WF centre and spread    3  ( -0.000001,  2.839923, -2.839921 )     1.53044244
  WF centre and spread    4  ( -0.000001, -2.839922, -2.839922 )     1.53044263
  WF centre and spread    5  (  2.839922, -2.839922, -0.000001 )     1.53044387
  WF centre and spread    6  (  2.839922,  2.839922, -0.000000 )     1.53044373
  WF centre and spread    7  ( -0.000002, -2.839922, -2.839921 )     3.62344846
  WF centre and spread    8  ( -2.839921, -2.839921, -0.000002 )     3.62344582
  WF centre and spread    9  ( -2.839921, -0.000001, -2.839921 )     3.62344846
  Sum of centres and spreads (  5.679844, -5.679843,-11.359687 )    20.05300063
 
     44    -0.844E-09     0.0000300825       20.0530006304       0.28  <-- CONV
        O_D=      0.0000000 O_OD=      0.3154000 O_TOT=     20.0530006 <-- SPRD
 Delta: O_D= -0.1263042E-09 O_OD= -0.7172277E-09 O_TOT= -0.8435315E-09 <-- DLTA
 ------------------------------------------------------------------------------
 Cycle:     45
  WF centre and spread    1  (  2.839922, -0.000000,  2.839922 )     1.53044268
  WF centre and spread    2  (  2.839923, -0.000000, -2.839922 )     1.53044253
  WF centre and spread    3  ( -0.000001,  2.839923, -2.839921 )     1.53044244
  WF centre and spread    4  ( -0.000001, -2.839922, -2.839922 )     1.53044263
  WF centre and spread    5  (  2.839922, -2.839922, -0.000001 )     1.53044387
  WF centre and spread    6  (  2.839922,  2.839922, -0.000000 )     1.53044373
  WF centre and spread    7  ( -0.000002, -2.839922, -2.839921 )     3.62344846
  WF centre and spread    8  ( -2.839921, -2.839921, -0.000002 )     3.62344582
  WF centre and spread    9  ( -2.839921, -0.000001, -2.839921 )     3.62344846
  Sum of centres and spreads (  5.679844, -5.679843,-11.359687 )    20.05300063
 
     45    -0.259E-11     0.0000232203       20.0530006304       0.29  <-- CONV
        O_D=      0.0000000 O_OD=      0.3154000 O_TOT=     20.0530006 <-- SPRD
 Delta: O_D= -0.2856153E-12 O_OD= -0.2304601E-11 O_TOT= -0.2589928E-11 <-- DLTA
 ------------------------------------------------------------------------------
 Cycle:     46
  WF centre and spread    1  (  2.839922, -0.000000,  2.839922 )     1.53044260
  WF centre and spread    2  (  2.839923, -0.000000, -2.839922 )     1.53044246
  WF centre and spread    3  ( -0.000001,  2.839923, -2.839921 )     1.53044237
  WF centre and spread    4  ( -0.000001, -2.839922, -2.839922 )     1.53044256
  WF centre and spread    5  (  2.839922, -2.839922, -0.000001 )     1.53044379
  WF centre and spread    6  (  2.839922,  2.839922, -0.000000 )     1.53044365
  WF centre and spread    7  ( -0.000002, -2.839922, -2.839921 )     3.62344855
  WF centre and spread    8  ( -2.839921, -2.839921, -0.000002 )     3.62344601
  WF centre and spread    9  ( -2.839921, -0.000001, -2.839921 )     3.62344863
  Sum of centres and spreads (  5.679844, -5.679843,-11.359687 )    20.05300063
 
     46    -0.645E-09     0.0000231802       20.0530006297       0.29  <-- CONV
        O_D=      0.0000000 O_OD=      0.3154000 O_TOT=     20.0530006 <-- SPRD
 Delta: O_D= -0.6304808E-10 O_OD= -0.5824184E-09 O_TOT= -0.6454677E-09 <-- DLTA
 ------------------------------------------------------------------------------
 Cycle:     47
  WF centre and spread    1  (  2.839922, -0.000000,  2.839922 )     1.53044258
  WF centre and spread    2  (  2.839923, -0.000000, -2.839922 )     1.53044244
  WF centre and spread    3  ( -0.000001,  2.839923, -2.839921 )     1.53044235
  WF centre and spread    4  ( -0.000001, -2.839922, -2.839922 )     1.53044254
  WF centre and spread    5  (  2.839922, -2.839922, -0.000001 )     1.53044377
  WF centre and spread    6  (  2.839922,  2.839922, -0.000000 )     1.53044363
  WF centre and spread    7  ( -0.000002, -2.839922, -2.839921 )     3.62344857
  WF centre and spread    8  ( -2.839921, -2.839921, -0.000002 )     3.62344606
  WF centre and spread    9  ( -2.839921, -0.000001, -2.839921 )     3.62344868
  Sum of centres and spreads (  5.679844, -5.679843,-11.359687 )    20.05300063
 
     47    -0.111E-09     0.0000188524       20.0530006296       0.30  <-- CONV
        O_D=      0.0000000 O_OD=      0.3154000 O_TOT=     20.0530006 <-- SPRD
 Delta: O_D= -0.6654648E-11 O_OD= -0.1044058E-09 O_TOT= -0.1110578E-09 <-- DLTA
 ------------------------------------------------------------------------------
 Cycle:     48
  WF centre and spread    1  (  2.839922, -0.000000,  2.839922 )     1.53044258
  WF centre and spread    2  (  2.839923, -0.000000, -2.839922 )     1.53044244
  WF centre and spread    3  ( -0.000001,  2.839923, -2.839921 )     1.53044235
  WF centre and spread    4  ( -0.000001, -2.839922, -2.839922 )     1.53044254
  WF centre and spread    5  (  2.839922, -2.839922, -0.000001 )     1.53044377
  WF centre and spread    6  (  2.839922,  2.839922, -0.000000 )     1.53044363
  WF centre and spread    7  ( -0.000002, -2.839922, -2.839921 )     3.62344857
  WF centre and spread    8  ( -2.839921, -2.839921, -0.000002 )     3.62344606
  WF centre and spread    9  ( -2.839921, -0.000001, -2.839921 )     3.62344868
  Sum of centres and spreads (  5.679844, -5.679843,-11.359687 )    20.05300063
 
     48    -0.167E-11     0.0000176733       20.0530006296       0.30  <-- CONV
        O_D=      0.0000000 O_OD=      0.3154000 O_TOT=     20.0530006 <-- SPRD
 Delta: O_D= -0.9186421E-13 O_OD= -0.1572631E-11 O_TOT= -0.1666223E-11 <-- DLTA
 ------------------------------------------------------------------------------
 Cycle:     49
  WF centre and spread    1  (  2.839922, -0.000000,  2.839922 )     1.53044258
  WF centre and spread    2  (  2.839923, -0.000000, -2.839922 )     1.53044244
  WF centre and spread    3  ( -0.000001,  2.839923, -2.839921 )     1.53044235
  WF centre and spread    4  ( -0.000001, -2.839922, -2.839922 )     1.53044254
  WF centre and spread    5  (  2.839922, -2.839922, -0.000001 )     1.53044377
  WF centre and spread    6  (  2.839922,  2.839922, -0.000000 )     1.53044363
  WF centre and spread    7  ( -0.000002, -2.839922, -2.839921 )     3.62344857
  WF centre and spread    8  ( -2.839921, -2.839921, -0.000002 )     3.62344606
  WF centre and spread    9  ( -2.839921, -0.000001, -2.839921 )     3.62344868
  Sum of centres and spreads (  5.679844, -5.679843,-11.359687 )    20.05300063
 
     49    -0.988E-12     0.0000176146       20.0530006296       0.31  <-- CONV
        O_D=      0.0000000 O_OD=      0.3154000 O_TOT=     20.0530006 <-- SPRD
 Delta: O_D= -0.7118548E-13 O_OD= -0.9157120E-12 O_TOT= -0.9876544E-12 <-- DLTA
 ------------------------------------------------------------------------------
 Cycle:     50
  WF centre and spread    1  (  2.839922, -0.000000,  2.839922 )     1.53044258
  WF centre and spread    2  (  2.839923, -0.000000, -2.839922 )     1.53044244
  WF centre and spread    3  ( -0.000001,  2.839923, -2.839921 )     1.53044236
  WF centre and spread    4  ( -0.000001, -2.839922, -2.839922 )     1.53044254
  WF centre and spread    5  (  2.839922, -2.839922, -0.000001 )     1.53044377
  WF centre and spread    6  (  2.839922,  2.839922, -0.000000 )     1.53044364
  WF centre and spread    7  ( -0.000002, -2.839922, -2.839921 )     3.62344857
  WF centre and spread    8  ( -2.839921, -2.839921, -0.000002 )     3.62344605
  WF centre and spread    9  ( -2.839921, -0.000001, -2.839921 )     3.62344867
  Sum of centres and spreads (  5.679844, -5.679843,-11.359687 )    20.05300063
 
     50    -0.136E-09     0.0000175592       20.0530006295       0.31  <-- CONV
        O_D=      0.0000000 O_OD=      0.3154000 O_TOT=     20.0530006 <-- SPRD
 Delta: O_D=  0.4455170E-11 O_OD= -0.1400418E-09 O_TOT= -0.1355858E-09 <-- DLTA
 ------------------------------------------------------------------------------
 Cycle:     51
  WF centre and spread    1  (  2.839922, -0.000000,  2.839922 )     1.53044258
  WF centre and spread    2  (  2.839923, -0.000000, -2.839922 )     1.53044244
  WF centre and spread    3  ( -0.000001,  2.839923, -2.839921 )     1.53044236
  WF centre and spread    4  ( -0.000001, -2.839922, -2.839922 )     1.53044254
  WF centre and spread    5  (  2.839922, -2.839922, -0.000001 )     1.53044377
  WF centre and spread    6  (  2.839922,  2.839922, -0.000000 )     1.53044364
  WF centre and spread    7  ( -0.000002, -2.839922, -2.839921 )     3.62344857
  WF centre and spread    8  ( -2.839921, -2.839921, -0.000002 )     3.62344605
  WF centre and spread    9  ( -2.839921, -0.000001, -2.839921 )     3.62344867
  Sum of centres and spreads (  5.679844, -5.679843,-11.359687 )    20.05300063
 
     51    -0.277E-12     0.0000179613       20.0530006295       0.32  <-- CONV
        O_D=      0.0000000 O_OD=      0.3154000 O_TOT=     20.0530006 <-- SPRD
 Delta: O_D=  0.4480837E-13 O_OD= -0.3216316E-12 O_TOT= -0.2771117E-12 <-- DLTA
 ------------------------------------------------------------------------------
 Cycle:     52
  WF centre and spread    1  (  2.839922, -0.000000,  2.839922 )     1.53044258
  WF centre and spread    2  (  2.839923, -0.000000, -2.839922 )     1.53044244
  WF centre and spread    3  ( -0.000001,  2.839923, -2.839921 )     1.53044236
  WF centre and spread    4  ( -0.000001, -2.839922, -2.839922 )     1.53044254
  WF centre and spread    5  (  2.839922, -2.839922, -0.000001 )     1.53044377
  WF centre and spread    6  (  2.839922,  2.839922, -0.000000 )     1.53044364
  WF centre and spread    7  ( -0.000002, -2.839922, -2.839921 )     3.62344857
  WF centre and spread    8  ( -2.839921, -2.839921, -0.000002 )     3.62344605
  WF centre and spread    9  ( -2.839921, -0.000001, -2.839921 )     3.62344867
  Sum of centres and spreads (  5.679844, -5.679843,-11.359687 )    20.05300063
 
     52    -0.131E-11     0.0000180063       20.0530006295       0.32  <-- CONV
        O_D=      0.0000000 O_OD=      0.3154000 O_TOT=     20.0530006 <-- SPRD
 Delta: O_D= -0.1006984E-12 O_OD= -0.1208700E-11 O_TOT= -0.1310951E-11 <-- DLTA
 ------------------------------------------------------------------------------
 Cycle:     53
  WF centre and spread    1  (  2.839922, -0.000000,  2.839922 )     1.53044259
  WF centre and spread    2  (  2.839923, -0.000000, -2.839922 )     1.53044245
  WF centre and spread    3  ( -0.000001,  2.839923, -2.839921 )     1.53044236
  WF centre and spread    4  ( -0.000001, -2.839922, -2.839922 )     1.53044254
  WF centre and spread    5  (  2.839922, -2.839922, -0.000001 )     1.53044378
  WF centre and spread    6  (  2.839922,  2.839922, -0.000000 )     1.53044364
  WF centre and spread    7  ( -0.000002, -2.839922, -2.839921 )     3.62344858
  WF centre and spread    8  ( -2.839921, -2.839921, -0.000002 )     3.62344603
  WF centre and spread    9  ( -2.839921, -0.000001, -2.839921 )     3.62344866
  Sum of centres and spreads (  5.679844, -5.679843,-11.359687 )    20.05300063
 
     53    -0.247E-09     0.0000179799       20.0530006292       0.33  <-- CONV
        O_D=      0.0000000 O_OD=      0.3154000 O_TOT=     20.0530006 <-- SPRD
 Delta: O_D=  0.5811117E-11 O_OD= -0.2526181E-09 O_TOT= -0.2468035E-09 <-- DLTA
 ------------------------------------------------------------------------------
 Cycle:     54
  WF centre and spread    1  (  2.839922, -0.000000,  2.839922 )     1.53044259
  WF centre and spread    2  (  2.839923, -0.000000, -2.839922 )     1.53044245
  WF centre and spread    3  ( -0.000001,  2.839923, -2.839921 )     1.53044236
  WF centre and spread    4  ( -0.000001, -2.839922, -2.839922 )     1.53044254
  WF centre and spread    5  (  2.839922, -2.839922, -0.000001 )     1.53044378
  WF centre and spread    6  (  2.839922,  2.839922, -0.000000 )     1.53044364
  WF centre and spread    7  ( -0.000002, -2.839922, -2.839921 )     3.62344858
  WF centre and spread    8  ( -2.839921, -2.839921, -0.000002 )     3.62344603
  WF centre and spread    9  ( -2.839921, -0.000001, -2.839921 )     3.62344866
  Sum of centres and spreads (  5.679844, -5.679843,-11.359687 )    20.05300063
 
     54    -0.154E-11     0.0000174546       20.0530006292       0.33  <-- CONV
        O_D=      0.0000000 O_OD=      0.3154000 O_TOT=     20.0530006 <-- SPRD
 Delta: O_D=  0.4986424E-13 O_OD= -0.1592060E-11 O_TOT= -0.1541878E-11 <-- DLTA
 ------------------------------------------------------------------------------
 Cycle:     55
  WF centre and spread    1  (  2.839922, -0.000000,  2.839922 )     1.53044259
  WF centre and spread    2  (  2.839923, -0.000000, -2.839922 )     1.53044245
  WF centre and spread    3  ( -0.000001,  2.839923, -2.839921 )     1.53044236
  WF centre and spread    4  ( -0.000001, -2.839922, -2.839922 )     1.53044254
  WF centre and spread    5  (  2.839922, -2.839922, -0.000001 )     1.53044378
  WF centre and spread    6  (  2.839922,  2.839922, -0.000000 )     1.53044364
  WF centre and spread    7  ( -0.000002, -2.839922, -2.839921 )     3.62344858
  WF centre and spread    8  ( -2.839921, -2.839921, -0.000002 )     3.62344603
  WF centre and spread    9  ( -2.839921, -0.000001, -2.839921 )     3.62344866
  Sum of centres and spreads (  5.679844, -5.679843,-11.359687 )    20.05300063
 
     55    -0.973E-12     0.0000174653       20.0530006292       0.33  <-- CONV
        O_D=      0.0000000 O_OD=      0.3154000 O_TOT=     20.0530006 <-- SPRD
 Delta: O_D= -0.2461615E-12 O_OD= -0.7241985E-12 O_TOT= -0.9734435E-12 <-- DLTA
 ------------------------------------------------------------------------------
 Cycle:     56
  WF centre and spread    1  (  2.839922, -0.000000,  2.839922 )     1.53044259
  WF centre and spread    2  (  2.839923, -0.000000, -2.839922 )     1.53044245
  WF centre and spread    3  ( -0.000001,  2.839923, -2.839921 )     1.53044236
  WF centre and spread    4  ( -0.000001, -2.839922, -2.839922 )     1.53044254
  WF centre and spread    5  (  2.839922, -2.839922, -0.000001 )     1.53044378
[...]
  WF centre and spread    7  ( -0.000002, -2.839922, -2.839921 )     3.62344862
  WF centre and spread    8  ( -2.839921, -2.839921, -0.000002 )     3.62344604
  WF centre and spread    9  ( -2.839921, -0.000001, -2.839921 )     3.62344867
  Sum of centres and spreads (  5.679844, -5.679843,-11.359687 )    20.05300063
 
    485    -0.224E-12     0.0000083675       20.0530006279       1.84  <-- CONV
        O_D=      0.0000000 O_OD=      0.3154000 O_TOT=     20.0530006 <-- SPRD
 Delta: O_D= -0.2018517E-17 O_OD= -0.2229328E-12 O_TOT= -0.2238210E-12 <-- DLTA
 ------------------------------------------------------------------------------
 Cycle:    486
  WF centre and spread    1  (  2.839922, -0.000000,  2.839922 )     1.53044258
  WF centre and spread    2  (  2.839923, -0.000000, -2.839921 )     1.53044244
  WF centre and spread    3  ( -0.000001,  2.839923, -2.839921 )     1.53044235
  WF centre and spread    4  ( -0.000001, -2.839922, -2.839922 )     1.53044254
  WF centre and spread    5  (  2.839922, -2.839922, -0.000001 )     1.53044376
  WF centre and spread    6  (  2.839922,  2.839922, -0.000000 )     1.53044362
  WF centre and spread    7  ( -0.000002, -2.839922, -2.839921 )     3.62344862
  WF centre and spread    8  ( -2.839921, -2.839921, -0.000002 )     3.62344604
  WF centre and spread    9  ( -2.839921, -0.000001, -2.839921 )     3.62344867
  Sum of centres and spreads (  5.679844, -5.679843,-11.359687 )    20.05300063
 
    486    -0.444E-12     0.0000083675       20.0530006279       1.85  <-- CONV
        O_D=      0.0000000 O_OD=      0.3154000 O_TOT=     20.0530006 <-- SPRD
 Delta: O_D= -0.4032519E-17 O_OD= -0.4465872E-12 O_TOT= -0.4440892E-12 <-- DLTA
 ------------------------------------------------------------------------------
 Cycle:    487
  WF centre and spread    1  (  2.839922, -0.000000,  2.839922 )     1.53044258
  WF centre and spread    2  (  2.839923, -0.000000, -2.839921 )     1.53044244
  WF centre and spread    3  ( -0.000001,  2.839923, -2.839921 )     1.53044235
  WF centre and spread    4  ( -0.000001, -2.839922, -2.839922 )     1.53044254
  WF centre and spread    5  (  2.839922, -2.839922, -0.000001 )     1.53044376
  WF centre and spread    6  (  2.839922,  2.839922, -0.000000 )     1.53044362
  WF centre and spread    7  ( -0.000002, -2.839922, -2.839921 )     3.62344862
  WF centre and spread    8  ( -2.839921, -2.839921, -0.000002 )     3.62344604
  WF centre and spread    9  ( -2.839921, -0.000001, -2.839921 )     3.62344867
  Sum of centres and spreads (  5.679844, -5.679843,-11.359687 )    20.05300063
 
    487    -0.671E-12     0.0000083674       20.0530006279       1.85  <-- CONV
        O_D=      0.0000000 O_OD=      0.3154000 O_TOT=     20.0530006 <-- SPRD
 Delta: O_D= -0.6040430E-17 O_OD= -0.6694645E-12 O_TOT= -0.6714629E-12 <-- DLTA
 ------------------------------------------------------------------------------
 Cycle:    488
  WF centre and spread    1  (  2.839922, -0.000000,  2.839922 )     1.53044258
  WF centre and spread    2  (  2.839923, -0.000000, -2.839921 )     1.53044244
  WF centre and spread    3  ( -0.000001,  2.839923, -2.839921 )     1.53044235
  WF centre and spread    4  ( -0.000001, -2.839922, -2.839922 )     1.53044254
  WF centre and spread    5  (  2.839922, -2.839922, -0.000001 )     1.53044376
  WF centre and spread    6  (  2.839922,  2.839922, -0.000000 )     1.53044362
  WF centre and spread    7  ( -0.000002, -2.839922, -2.839921 )     3.62344862
  WF centre and spread    8  ( -2.839921, -2.839921, -0.000002 )     3.62344604
  WF centre and spread    9  ( -2.839921, -0.000001, -2.839921 )     3.62344867
  Sum of centres and spreads (  5.679844, -5.679843,-11.359687 )    20.05300063
 
    488    -0.892E-12     0.0000083673       20.0530006279       1.85  <-- CONV
        O_D=      0.0000000 O_OD=      0.3154000 O_TOT=     20.0530006 <-- SPRD
 Delta: O_D= -0.8036704E-17 O_OD= -0.8919532E-12 O_TOT= -0.8917311E-12 <-- DLTA
 ------------------------------------------------------------------------------
 Cycle:    489
  WF centre and spread    1  (  2.839922, -0.000000,  2.839922 )     1.53044258
  WF centre and spread    2  (  2.839923, -0.000000, -2.839921 )     1.53044244
  WF centre and spread    3  ( -0.000001,  2.839923, -2.839921 )     1.53044235
  WF centre and spread    4  ( -0.000001, -2.839922, -2.839922 )     1.53044254
  WF centre and spread    5  (  2.839922, -2.839922, -0.000001 )     1.53044376
  WF centre and spread    6  (  2.839922,  2.839922, -0.000000 )     1.53044362
  WF centre and spread    7  ( -0.000002, -2.839922, -2.839921 )     3.62344862
  WF centre and spread    8  ( -2.839921, -2.839921, -0.000002 )     3.62344604
  WF centre and spread    9  ( -2.839921, -0.000001, -2.839921 )     3.62344867
  Sum of centres and spreads (  5.679844, -5.679843,-11.359687 )    20.05300063
 
    489    -0.112E-11     0.0000083671       20.0530006279       1.86  <-- CONV
        O_D=      0.0000000 O_OD=      0.3154000 O_TOT=     20.0530006 <-- SPRD
 Delta: O_D= -0.1001816E-16 O_OD= -0.1116385E-11 O_TOT= -0.1115552E-11 <-- DLTA
 ------------------------------------------------------------------------------
 Cycle:    490
  WF centre and spread    1  (  2.839922, -0.000000,  2.839922 )     1.53044258
  WF centre and spread    2  (  2.839923, -0.000000, -2.839921 )     1.53044244
  WF centre and spread    3  ( -0.000001,  2.839923, -2.839921 )     1.53044235
  WF centre and spread    4  ( -0.000001, -2.839922, -2.839922 )     1.53044254
  WF centre and spread    5  (  2.839922, -2.839922, -0.000001 )     1.53044376
  WF centre and spread    6  (  2.839922,  2.839922, -0.000000 )     1.53044362
  WF centre and spread    7  ( -0.000002, -2.839922, -2.839921 )     3.62344862
  WF centre and spread    8  ( -2.839921, -2.839921, -0.000002 )     3.62344604
  WF centre and spread    9  ( -2.839921, -0.000001, -2.839921 )     3.62344867
  Sum of centres and spreads (  5.679844, -5.679843,-11.359687 )    20.05300063
 
    490    -0.134E-11     0.0000083669       20.0530006279       1.86  <-- CONV
        O_D=      0.0000000 O_OD=      0.3154000 O_TOT=     20.0530006 <-- SPRD
 Delta: O_D= -0.1198118E-16 O_OD= -0.1338152E-11 O_TOT= -0.1339373E-11 <-- DLTA
 ------------------------------------------------------------------------------
 Cycle:    491
  WF centre and spread    1  (  2.839922, -0.000000,  2.839922 )     1.53044258
  WF centre and spread    2  (  2.839923, -0.000000, -2.839921 )     1.53044244
  WF centre and spread    3  ( -0.000001,  2.839923, -2.839921 )     1.53044235
  WF centre and spread    4  ( -0.000001, -2.839922, -2.839922 )     1.53044254
  WF centre and spread    5  (  2.839922, -2.839922, -0.000001 )     1.53044376
  WF centre and spread    6  (  2.839922,  2.839922, -0.000000 )     1.53044362
  WF centre and spread    7  ( -0.000002, -2.839922, -2.839921 )     3.62344862
  WF centre and spread    8  ( -2.839921, -2.839921, -0.000002 )     3.62344604
  WF centre and spread    9  ( -2.839921, -0.000001, -2.839921 )     3.62344867
  Sum of centres and spreads (  5.679844, -5.679843,-11.359687 )    20.05300063
 
    491    -0.220E-12     0.0000083666       20.0530006279       1.86  <-- CONV
        O_D=      0.0000000 O_OD=      0.3154000 O_TOT=     20.0530006 <-- SPRD
 Delta: O_D= -0.1988611E-17 O_OD= -0.2225997E-12 O_TOT= -0.2202682E-12 <-- DLTA
 ------------------------------------------------------------------------------
 Cycle:    492
  WF centre and spread    1  (  2.839922, -0.000000,  2.839922 )     1.53044258
  WF centre and spread    2  (  2.839923, -0.000000, -2.839921 )     1.53044244
  WF centre and spread    3  ( -0.000001,  2.839923, -2.839921 )     1.53044235
  WF centre and spread    4  ( -0.000001, -2.839922, -2.839922 )     1.53044254
  WF centre and spread    5  (  2.839922, -2.839922, -0.000001 )     1.53044376
  WF centre and spread    6  (  2.839922,  2.839922, -0.000000 )     1.53044362
  WF centre and spread    7  ( -0.000002, -2.839922, -2.839921 )     3.62344862
  WF centre and spread    8  ( -2.839921, -2.839921, -0.000002 )     3.62344604
  WF centre and spread    9  ( -2.839921, -0.000001, -2.839921 )     3.62344867
  Sum of centres and spreads (  5.679844, -5.679843,-11.359687 )    20.05300063
 
    492    -0.448E-12     0.0000083666       20.0530006279       1.87  <-- CONV
        O_D=      0.0000000 O_OD=      0.3154000 O_TOT=     20.0530006 <-- SPRD
 Delta: O_D= -0.3972480E-17 O_OD= -0.4456435E-12 O_TOT= -0.4476419E-12 <-- DLTA
 ------------------------------------------------------------------------------
 Cycle:    493
  WF centre and spread    1  (  2.839922, -0.000000,  2.839922 )     1.53044258
  WF centre and spread    2  (  2.839923, -0.000000, -2.839921 )     1.53044244
  WF centre and spread    3  ( -0.000001,  2.839923, -2.839921 )     1.53044235
  WF centre and spread    4  ( -0.000001, -2.839922, -2.839922 )     1.53044254
  WF centre and spread    5  (  2.839922, -2.839922, -0.000001 )     1.53044376
  WF centre and spread    6  (  2.839922,  2.839922, -0.000000 )     1.53044362
  WF centre and spread    7  ( -0.000002, -2.839922, -2.839921 )     3.62344862
  WF centre and spread    8  ( -2.839921, -2.839921, -0.000002 )     3.62344604
  WF centre and spread    9  ( -2.839921, -0.000001, -2.839921 )     3.62344867
  Sum of centres and spreads (  5.679844, -5.679843,-11.359687 )    20.05300063
 
    493    -0.671E-12     0.0000083665       20.0530006279       1.87  <-- CONV
        O_D=      0.0000000 O_OD=      0.3154000 O_TOT=     20.0530006 <-- SPRD
 Delta: O_D= -0.5949801E-17 O_OD= -0.6702416E-12 O_TOT= -0.6714629E-12 <-- DLTA
 ------------------------------------------------------------------------------
 Cycle:    494
  WF centre and spread    1  (  2.839922, -0.000000,  2.839922 )     1.53044258
  WF centre and spread    2  (  2.839923, -0.000000, -2.839921 )     1.53044244
  WF centre and spread    3  ( -0.000001,  2.839923, -2.839921 )     1.53044235
  WF centre and spread    4  ( -0.000001, -2.839922, -2.839922 )     1.53044254
  WF centre and spread    5  (  2.839922, -2.839922, -0.000001 )     1.53044376
  WF centre and spread    6  (  2.839922,  2.839922, -0.000000 )     1.53044362
  WF centre and spread    7  ( -0.000002, -2.839922, -2.839921 )     3.62344862
  WF centre and spread    8  ( -2.839921, -2.839921, -0.000002 )     3.62344604
  WF centre and spread    9  ( -2.839921, -0.000001, -2.839921 )     3.62344867
  Sum of centres and spreads (  5.679844, -5.679843,-11.359687 )    20.05300063
 
    494    -0.892E-12     0.0000083663       20.0530006279       1.87  <-- CONV
        O_D=      0.0000000 O_OD=      0.3154000 O_TOT=     20.0530006 <-- SPRD
 Delta: O_D= -0.7916193E-17 O_OD= -0.8926748E-12 O_TOT= -0.8917311E-12 <-- DLTA
 ------------------------------------------------------------------------------
 Cycle:    495
  WF centre and spread    1  (  2.839922, -0.000000,  2.839922 )     1.53044258
  WF centre and spread    2  (  2.839923, -0.000000, -2.839921 )     1.53044244
  WF centre and spread    3  ( -0.000001,  2.839923, -2.839921 )     1.53044235
  WF centre and spread    4  ( -0.000001, -2.839922, -2.839922 )     1.53044254
  WF centre and spread    5  (  2.839922, -2.839922, -0.000001 )     1.53044376
  WF centre and spread    6  (  2.839922,  2.839922, -0.000000 )     1.53044362
  WF centre and spread    7  ( -0.000002, -2.839922, -2.839921 )     3.62344862
  WF centre and spread    8  ( -2.839921, -2.839921, -0.000002 )     3.62344604
  WF centre and spread    9  ( -2.839921, -0.000001, -2.839921 )     3.62344867
  Sum of centres and spreads (  5.679844, -5.679843,-11.359687 )    20.05300063
 
    495    -0.111E-11     0.0000083662       20.0530006279       1.88  <-- CONV
        O_D=      0.0000000 O_OD=      0.3154000 O_TOT=     20.0530006 <-- SPRD
 Delta: O_D= -0.9867812E-17 O_OD= -0.1114164E-11 O_TOT= -0.1111999E-11 <-- DLTA
 ------------------------------------------------------------------------------
 Cycle:    496
  WF centre and spread    1  (  2.839922, -0.000000,  2.839922 )     1.53044258
  WF centre and spread    2  (  2.839923, -0.000000, -2.839921 )     1.53044244
  WF centre and spread    3  ( -0.000001,  2.839923, -2.839921 )     1.53044235
  WF centre and spread    4  ( -0.000001, -2.839922, -2.839922 )     1.53044254
  WF centre and spread    5  (  2.839922, -2.839922, -0.000001 )     1.53044376
  WF centre and spread    6  (  2.839922,  2.839922, -0.000000 )     1.53044362
  WF centre and spread    7  ( -0.000002, -2.839922, -2.839921 )     3.62344862
  WF centre and spread    8  ( -2.839921, -2.839921, -0.000002 )     3.62344604
  WF centre and spread    9  ( -2.839921, -0.000001, -2.839921 )     3.62344867
  Sum of centres and spreads (  5.679844, -5.679843,-11.359687 )    20.05300063
 
    496    -0.134E-11     0.0000083659       20.0530006279       1.88  <-- CONV
        O_D=      0.0000000 O_OD=      0.3154000 O_TOT=     20.0530006 <-- SPRD
 Delta: O_D= -0.1180090E-16 O_OD= -0.1338263E-11 O_TOT= -0.1339373E-11 <-- DLTA
 ------------------------------------------------------------------------------
 Cycle:    497
  WF centre and spread    1  (  2.839922, -0.000000,  2.839922 )     1.53044258
  WF centre and spread    2  (  2.839923, -0.000000, -2.839921 )     1.53044244
  WF centre and spread    3  ( -0.000001,  2.839923, -2.839921 )     1.53044235
  WF centre and spread    4  ( -0.000001, -2.839922, -2.839922 )     1.53044254
  WF centre and spread    5  (  2.839922, -2.839922, -0.000001 )     1.53044376
  WF centre and spread    6  (  2.839922,  2.839922, -0.000000 )     1.53044362
  WF centre and spread    7  ( -0.000002, -2.839922, -2.839921 )     3.62344862
  WF centre and spread    8  ( -2.839921, -2.839921, -0.000002 )     3.62344604
  WF centre and spread    9  ( -2.839921, -0.000001, -2.839921 )     3.62344867
  Sum of centres and spreads (  5.679844, -5.679843,-11.359687 )    20.05300063
 
    497    -0.224E-12     0.0000083657       20.0530006279       1.88  <-- CONV
        O_D=      0.0000000 O_OD=      0.3154000 O_TOT=     20.0530006 <-- SPRD
 Delta: O_D= -0.1958634E-17 O_OD= -0.2237099E-12 O_TOT= -0.2238210E-12 <-- DLTA
 ------------------------------------------------------------------------------
 Cycle:    498
  WF centre and spread    1  (  2.839922, -0.000000,  2.839922 )     1.53044258
  WF centre and spread    2  (  2.839923, -0.000000, -2.839921 )     1.53044244
  WF centre and spread    3  ( -0.000001,  2.839923, -2.839921 )     1.53044235
  WF centre and spread    4  ( -0.000001, -2.839922, -2.839922 )     1.53044254
  WF centre and spread    5  (  2.839922, -2.839922, -0.000001 )     1.53044376
  WF centre and spread    6  (  2.839922,  2.839922, -0.000000 )     1.53044362
  WF centre and spread    7  ( -0.000002, -2.839922, -2.839921 )     3.62344862
  WF centre and spread    8  ( -2.839921, -2.839921, -0.000002 )     3.62344604
  WF centre and spread    9  ( -2.839921, -0.000001, -2.839921 )     3.62344867
  Sum of centres and spreads (  5.679844, -5.679843,-11.359687 )    20.05300063
 
    498    -0.444E-12     0.0000083656       20.0530006279       1.89  <-- CONV
        O_D=      0.0000000 O_OD=      0.3154000 O_TOT=     20.0530006 <-- SPRD
 Delta: O_D= -0.3913012E-17 O_OD= -0.4453105E-12 O_TOT= -0.4440892E-12 <-- DLTA
 ------------------------------------------------------------------------------
 Cycle:    499
  WF centre and spread    1  (  2.839922, -0.000000,  2.839922 )     1.53044258
  WF centre and spread    2  (  2.839923, -0.000000, -2.839921 )     1.53044244
  WF centre and spread    3  ( -0.000001,  2.839923, -2.839921 )     1.53044235
  WF centre and spread    4  ( -0.000001, -2.839922, -2.839922 )     1.53044254
  WF centre and spread    5  (  2.839922, -2.839922, -0.000001 )     1.53044376
  WF centre and spread    6  (  2.839922,  2.839922, -0.000000 )     1.53044362
  WF centre and spread    7  ( -0.000002, -2.839922, -2.839921 )     3.62344862
  WF centre and spread    8  ( -2.839921, -2.839921, -0.000002 )     3.62344604
  WF centre and spread    9  ( -2.839921, -0.000001, -2.839921 )     3.62344867
  Sum of centres and spreads (  5.679844, -5.679843,-11.359687 )    20.05300063
 
    499    -0.671E-12     0.0000083655       20.0530006279       1.89  <-- CONV
        O_D=      0.0000000 O_OD=      0.3154000 O_TOT=     20.0530006 <-- SPRD
 Delta: O_D= -0.5860312E-17 O_OD= -0.6687984E-12 O_TOT= -0.6714629E-12 <-- DLTA
 ------------------------------------------------------------------------------
 Cycle:    500
  WF centre and spread    1  (  2.839922, -0.000000,  2.839922 )     1.53044258
  WF centre and spread    2  (  2.839923, -0.000000, -2.839921 )     1.53044244
  WF centre and spread    3  ( -0.000001,  2.839923, -2.839921 )     1.53044235
  WF centre and spread    4  ( -0.000001, -2.839922, -2.839922 )     1.53044254
  WF centre and spread    5  (  2.839922, -2.839922, -0.000001 )     1.53044376
  WF centre and spread    6  (  2.839922,  2.839922, -0.000000 )     1.53044362
  WF centre and spread    7  ( -0.000002, -2.839922, -2.839921 )     3.62344862
  WF centre and spread    8  ( -2.839921, -2.839921, -0.000002 )     3.62344604
  WF centre and spread    9  ( -2.839921, -0.000001, -2.839921 )     3.62344867
  Sum of centres and spreads (  5.679844, -5.679843,-11.359687 )    20.05300063
 
    500    -0.892E-12     0.0000083654       20.0530006279       1.89  <-- CONV
        O_D=      0.0000000 O_OD=      0.3154000 O_TOT=     20.0530006 <-- SPRD
 Delta: O_D= -0.7796528E-17 O_OD= -0.8915091E-12 O_TOT= -0.8917311E-12 <-- DLTA
 ------------------------------------------------------------------------------

 Writing checkpoint file mp-23037.chk... done

 Final State
  WF centre and spread    1  (  2.839922, -0.000000,  2.839922 )     1.53044258
  WF centre and spread    2  (  2.839923, -0.000000, -2.839921 )     1.53044244
  WF centre and spread    3  ( -0.000001,  2.839923, -2.839921 )     1.53044235
  WF centre and spread    4  ( -0.000001, -2.839922, -2.839922 )     1.53044254
  WF centre and spread    5  (  2.839922, -2.839922, -0.000001 )     1.53044376
  WF centre and spread    6  (  2.839922,  2.839922, -0.000000 )     1.53044362
  WF centre and spread    7  ( -0.000002, -2.839922, -2.839921 )     3.62344862
  WF centre and spread    8  ( -2.839921, -2.839921, -0.000002 )     3.62344604
  WF centre and spread    9  ( -2.839921, -0.000001, -2.839921 )     3.62344867
  Sum of centres and spreads (  5.679844, -5.679843,-11.359687 )    20.05300063
 
         Spreads (Ang^2)       Omega I      =    19.737600620
        ================       Omega D      =     0.000000000
                               Omega OD     =     0.315400008
    Final Spread (Ang^2)       Omega Total  =    20.053000628
 ------------------------------------------------------------------------------
 Time for wannierise            1.893 (sec)

 Writing checkpoint file mp-23037.chk... done

 Time for plotting              0.000 (sec)
 Total Execution Time           2.492 (sec)

 *===========================================================================*
 |                             TIMING INFORMATION                            |
 *===========================================================================*
 |    Tag                                                Ncalls      Time (s)|
 |---------------------------------------------------------------------------|
 |kmesh: get                                        :         1         0.318|
 |overlap: allocate                                 :         1         0.003|
 |overlap: read                                     :         1         0.240|
 |wann: main                                        :         1         1.893|
 |plot: main                                        :         1         0.000|
 *---------------------------------------------------------------------------*
 
 All done: wannier90 exiting
