<?xml version="1.0" encoding="ISO-8859-1"?>
<modeling>
 <generator>
  <i name="program" type="string">vasp </i>
  <i name="version" type="string">5.4.4.18Apr17-6-g9f103f2a35  </i>
  <i name="subversion" type="string">(build Aug 24 2017 11:22:49) complex            parallel </i>
  <i name="platform" type="string">LinuxIFC </i>
  <i name="date" type="string">2023 12 25 </i>
  <i name="time" type="string">13:07:54 </i>
 </generator>
 <incar>
  <i type="string" name="PREC">accurate</i>
  <i type="string" name="ALGO"> Normal</i>
  <i type="int" name="NELM">   100</i>
  <i type="int" name="IBRION">     8</i>
  <i name="EDIFF">      0.00000001</i>
  <i name="SYMPREC">      0.00000001</i>
  <i name="ENCUT">    520.00000000</i>
  <i type="logical" name="LREAL"> F  </i>
  <i type="int" name="ISMEAR">     0</i>
  <i name="SIGMA">      0.01000000</i>
  <i type="logical" name="LWAVE"> F  </i>
  <v type="int" name="KPOINT_BSE">    -1     0     0     0</v>
  <i type="int" name="NELM">   100</i>
  <i type="logical" name="LPEAD"> T  </i>
  <i type="logical" name="LEPSILON"> T  </i>
 </incar>
 <structure name="primitive_cell" >
  <crystal>
   <varray name="basis" >
    <v>      -2.89651424       0.00000000       2.89651424 </v>
    <v>       0.00000000       2.89651424       2.89651424 </v>
    <v>      -2.89651424       2.89651424       0.00000000 </v>
   </varray>
   <i name="volume">     48.60231964 </i>
   <varray name="rec_basis" >
    <v>      -0.17262128      -0.17262128       0.17262128 </v>
    <v>       0.17262128       0.17262128       0.17262128 </v>
    <v>      -0.17262128       0.17262128      -0.17262128 </v>
   </varray>
  </crystal>
  <varray name="positions" >
   <v>       0.00000000       0.00000000       0.00000000 </v>
  </varray>
 </structure>
 <varray name="primitive_index" >
  <v type="int" >        1 </v>
 </varray>
 <kpoints>
  <generation param="Gamma">
   <v type="int" name="divisions">      14       14       14 </v>
   <v name="usershift">      0.00000000       0.00000000       0.00000000 </v>
   <v name="genvec1">      0.07142857       0.00000000       0.00000000 </v>
   <v name="genvec2">      0.00000000       0.07142857      -0.00000000 </v>
   <v name="genvec3">     -0.00000000      -0.00000000       0.07142857 </v>
   <v name="shift">      0.00000000       0.00000000       0.00000000 </v>
  </generation>
  <varray name="kpointlist" >
   <v>       0.00000000       0.00000000       0.00000000 </v>
   <v>       0.07142857       0.00000000       0.00000000 </v>
   <v>       0.14285714       0.00000000       0.00000000 </v>
   <v>       0.21428571      -0.00000000      -0.00000000 </v>
   <v>       0.28571429      -0.00000000       0.00000000 </v>
   <v>       0.35714286       0.00000000       0.00000000 </v>
   <v>       0.42857143      -0.00000000      -0.00000000 </v>
   <v>       0.50000000      -0.00000000       0.00000000 </v>
   <v>       0.07142857       0.07142857       0.00000000 </v>
   <v>       0.14285714       0.07142857       0.00000000 </v>
   <v>       0.21428571       0.07142857       0.00000000 </v>
   <v>       0.28571429       0.07142857       0.00000000 </v>
   <v>       0.35714286       0.07142857       0.00000000 </v>
   <v>       0.42857143       0.07142857       0.00000000 </v>
   <v>       0.50000000       0.07142857       0.00000000 </v>
   <v>      -0.42857143       0.07142857       0.00000000 </v>
   <v>      -0.35714286       0.07142857      -0.00000000 </v>
   <v>      -0.28571429       0.07142857      -0.00000000 </v>
   <v>      -0.21428571       0.07142857       0.00000000 </v>
   <v>      -0.14285714       0.07142857      -0.00000000 </v>
   <v>      -0.07142857       0.07142857      -0.00000000 </v>
   <v>       0.14285714       0.14285714       0.00000000 </v>
   <v>       0.21428571       0.14285714      -0.00000000 </v>
   <v>       0.28571429       0.14285714       0.00000000 </v>
   <v>       0.35714286       0.14285714       0.00000000 </v>
   <v>       0.42857143       0.14285714       0.00000000 </v>
   <v>       0.50000000       0.14285714       0.00000000 </v>
   <v>      -0.42857143       0.14285714       0.00000000 </v>
   <v>      -0.35714286       0.14285714      -0.00000000 </v>
   <v>      -0.28571429       0.14285714       0.00000000 </v>
   <v>      -0.21428571       0.14285714      -0.00000000 </v>
   <v>      -0.14285714       0.14285714      -0.00000000 </v>
   <v>       0.21428571       0.21428571       0.00000000 </v>
   <v>       0.28571429       0.21428571       0.00000000 </v>
   <v>       0.35714286       0.21428571       0.00000000 </v>
   <v>       0.42857143       0.21428571       0.00000000 </v>
   <v>       0.50000000       0.21428571       0.00000000 </v>
   <v>      -0.42857143       0.21428571      -0.00000000 </v>
   <v>      -0.35714286       0.21428571       0.00000000 </v>
   <v>      -0.28571429       0.21428571       0.00000000 </v>
   <v>      -0.21428571       0.21428571       0.00000000 </v>
   <v>       0.28571429       0.28571429       0.00000000 </v>
   <v>       0.35714286       0.28571429       0.00000000 </v>
   <v>       0.42857143       0.28571429       0.00000000 </v>
   <v>       0.50000000       0.28571429       0.00000000 </v>
   <v>      -0.42857143       0.28571429      -0.00000000 </v>
   <v>      -0.35714286       0.28571429      -0.00000000 </v>
   <v>      -0.28571429       0.28571429       0.00000000 </v>
   <v>       0.35714286       0.35714286       0.00000000 </v>
   <v>       0.42857143       0.35714286       0.00000000 </v>
   <v>       0.50000000       0.35714286       0.00000000 </v>
   <v>      -0.42857143       0.35714286       0.00000000 </v>
   <v>      -0.35714286       0.35714286       0.00000000 </v>
   <v>       0.42857143       0.42857143       0.00000000 </v>
   <v>       0.50000000       0.42857143       0.00000000 </v>
   <v>      -0.42857143       0.42857143       0.00000000 </v>
   <v>       0.50000000       0.50000000       0.00000000 </v>
   <v>       0.21428571       0.14285714       0.07142857 </v>
   <v>       0.28571429       0.14285714       0.07142857 </v>
   <v>       0.35714286       0.14285714       0.07142857 </v>
   <v>       0.42857143       0.14285714       0.07142857 </v>
   <v>       0.50000000       0.14285714       0.07142857 </v>
   <v>      -0.42857143       0.14285714       0.07142857 </v>
   <v>       0.28571429       0.21428571       0.07142857 </v>
   <v>       0.35714286       0.21428571       0.07142857 </v>
   <v>       0.42857143       0.21428571       0.07142857 </v>
   <v>       0.50000000       0.21428571       0.07142857 </v>
   <v>      -0.42857143       0.21428571       0.07142857 </v>
   <v>      -0.35714286       0.21428571       0.07142857 </v>
   <v>      -0.28571429       0.21428571       0.07142857 </v>
   <v>      -0.21428571       0.21428571       0.07142857 </v>
   <v>      -0.14285714       0.21428571       0.07142857 </v>
   <v>       0.35714286       0.28571429       0.07142857 </v>
   <v>       0.42857143       0.28571429       0.07142857 </v>
   <v>       0.50000000       0.28571429       0.07142857 </v>
   <v>      -0.42857143       0.28571429       0.07142857 </v>
   <v>      -0.35714286       0.28571429       0.07142857 </v>
   <v>      -0.28571429       0.28571429       0.07142857 </v>
   <v>      -0.21428571       0.28571429       0.07142857 </v>
   <v>       0.42857143       0.35714286       0.07142857 </v>
   <v>       0.50000000       0.35714286       0.07142857 </v>
   <v>      -0.42857143       0.35714286       0.07142857 </v>
   <v>      -0.35714286       0.35714286       0.07142857 </v>
   <v>      -0.28571429       0.35714286       0.07142857 </v>
   <v>       0.50000000       0.42857143       0.07142857 </v>
   <v>      -0.42857143       0.42857143       0.07142857 </v>
   <v>      -0.35714286       0.42857143       0.07142857 </v>
   <v>      -0.42857143       0.50000000       0.07142857 </v>
   <v>       0.42857143       0.28571429       0.14285714 </v>
   <v>       0.50000000       0.28571429       0.14285714 </v>
   <v>      -0.42857143       0.28571429       0.14285714 </v>
   <v>      -0.35714286       0.28571429       0.14285714 </v>
   <v>       0.50000000       0.35714286       0.14285714 </v>
   <v>      -0.42857143       0.35714286       0.14285714 </v>
   <v>      -0.35714286       0.35714286       0.14285714 </v>
   <v>      -0.28571429       0.35714286       0.14285714 </v>
   <v>      -0.21428571       0.35714286       0.14285714 </v>
   <v>      -0.42857143       0.42857143       0.14285714 </v>
   <v>      -0.35714286       0.42857143       0.14285714 </v>
   <v>      -0.28571429       0.42857143       0.14285714 </v>
   <v>      -0.35714286       0.50000000       0.14285714 </v>
   <v>      -0.35714286       0.42857143       0.21428571 </v>
   <v>      -0.28571429       0.42857143       0.21428571 </v>
   <v>      -0.28571429       0.50000000       0.21428571 </v>
  </varray>
  <varray name="weights" >
   <v>       0.00036443 </v>
   <v>       0.00291545 </v>
   <v>       0.00291545 </v>
   <v>       0.00291545 </v>
   <v>       0.00291545 </v>
   <v>       0.00291545 </v>
   <v>       0.00291545 </v>
   <v>       0.00145773 </v>
   <v>       0.00218659 </v>
   <v>       0.00874636 </v>
   <v>       0.00874636 </v>
   <v>       0.00874636 </v>
   <v>       0.00874636 </v>
   <v>       0.00874636 </v>
   <v>       0.00874636 </v>
   <v>       0.00874636 </v>
   <v>       0.00874636 </v>
   <v>       0.00874636 </v>
   <v>       0.00874636 </v>
   <v>       0.00874636 </v>
   <v>       0.00437318 </v>
   <v>       0.00218659 </v>
   <v>       0.00874636 </v>
   <v>       0.00874636 </v>
   <v>       0.00874636 </v>
   <v>       0.00874636 </v>
   <v>       0.00874636 </v>
   <v>       0.00874636 </v>
   <v>       0.00874636 </v>
   <v>       0.00874636 </v>
   <v>       0.00874636 </v>
   <v>       0.00437318 </v>
   <v>       0.00218659 </v>
   <v>       0.00874636 </v>
   <v>       0.00874636 </v>
   <v>       0.00874636 </v>
   <v>       0.00874636 </v>
   <v>       0.00874636 </v>
   <v>       0.00874636 </v>
   <v>       0.00874636 </v>
   <v>       0.00437318 </v>
   <v>       0.00218659 </v>
   <v>       0.00874636 </v>
   <v>       0.00874636 </v>
   <v>       0.00874636 </v>
   <v>       0.00874636 </v>
   <v>       0.00874636 </v>
   <v>       0.00437318 </v>
   <v>       0.00218659 </v>
   <v>       0.00874636 </v>
   <v>       0.00874636 </v>
   <v>       0.00874636 </v>
   <v>       0.00437318 </v>
   <v>       0.00218659 </v>
   <v>       0.00874636 </v>
   <v>       0.00437318 </v>
   <v>       0.00109329 </v>
   <v>       0.00874636 </v>
   <v>       0.01749271 </v>
   <v>       0.01749271 </v>
   <v>       0.01749271 </v>
   <v>       0.01749271 </v>
   <v>       0.00874636 </v>
   <v>       0.00874636 </v>
   <v>       0.01749271 </v>
   <v>       0.01749271 </v>
   <v>       0.01749271 </v>
   <v>       0.01749271 </v>
   <v>       0.01749271 </v>
   <v>       0.01749271 </v>
   <v>       0.01749271 </v>
   <v>       0.00874636 </v>
   <v>       0.00874636 </v>
   <v>       0.01749271 </v>
   <v>       0.01749271 </v>
   <v>       0.01749271 </v>
   <v>       0.01749271 </v>
   <v>       0.01749271 </v>
   <v>       0.00874636 </v>
   <v>       0.00874636 </v>
   <v>       0.01749271 </v>
   <v>       0.01749271 </v>
   <v>       0.01749271 </v>
   <v>       0.00874636 </v>
   <v>       0.00874636 </v>
   <v>       0.01749271 </v>
   <v>       0.00874636 </v>
   <v>       0.00437318 </v>
   <v>       0.00874636 </v>
   <v>       0.01749271 </v>
   <v>       0.01749271 </v>
   <v>       0.00874636 </v>
   <v>       0.00874636 </v>
   <v>       0.01749271 </v>
   <v>       0.01749271 </v>
   <v>       0.01749271 </v>
   <v>       0.00874636 </v>
   <v>       0.00874636 </v>
   <v>       0.01749271 </v>
   <v>       0.00874636 </v>
   <v>       0.00437318 </v>
   <v>       0.00874636 </v>
   <v>       0.00874636 </v>
   <v>       0.00437318 </v>
  </varray>
 </kpoints>
 <parameters>
  <separator name="general" >
   <i type="string" name="SYSTEM">unknown system</i>
   <i type="logical" name="LCOMPAT"> F  </i>
  </separator>
  <separator name="electronic" >
   <i type="string" name="PREC">accura</i>
   <i name="ENMAX">    520.00000000</i>
   <i name="ENAUG">    334.95000000</i>
   <i name="EDIFF">      0.00000001</i>
   <i type="int" name="IALGO">    38</i>
   <i type="int" name="IWAVPR">    11</i>
   <i type="int" name="NBANDS">     8</i>
   <i name="NELECT">      8.00000000</i>
   <i type="int" name="TURBO">     0</i>
   <i type="int" name="IRESTART">     0</i>
   <i type="int" name="NREBOOT">     0</i>
   <i type="int" name="NMIN">     0</i>
   <i name="EREF">      0.00000000</i>
   <separator name="electronic smearing" >
    <i type="int" name="ISMEAR">     0</i>
    <i name="SIGMA">      0.01000000</i>
    <i name="KSPACING">      0.50000000</i>
    <i type="logical" name="KGAMMA"> T  </i>
   </separator>
   <separator name="electronic projectors" >
    <i type="logical" name="LREAL"> F  </i>
    <v name="ROPT">      0.00000000</v>
    <i type="int" name="LMAXPAW">  -100</i>
    <i type="int" name="LMAXMIX">     2</i>
    <i type="logical" name="NLSPLINE"> F  </i>
   </separator>
   <separator name="electronic startup" >
    <i type="int" name="ISTART">     0</i>
    <i type="int" name="ICHARG">     2</i>
    <i type="int" name="INIWAV">     1</i>
   </separator>
   <separator name="electronic spin" >
    <i type="int" name="ISPIN">     1</i>
    <i type="logical" name="LNONCOLLINEAR"> F  </i>
    <v name="MAGMOM">      1.00000000</v>
    <i name="NUPDOWN">     -1.00000000</i>
    <i type="logical" name="LSORBIT"> F  </i>
    <v name="SAXIS">      0.00000000      0.00000000      1.00000000</v>
    <i type="logical" name="LSPIRAL"> F  </i>
    <v name="QSPIRAL">      0.00000000      0.00000000      0.00000000</v>
    <i type="logical" name="LZEROZ"> F  </i>
   </separator>
   <separator name="electronic exchange-correlation" >
    <i type="logical" name="LASPH"> F  </i>
    <i type="logical" name="LMETAGGA"> F  </i>
   </separator>
   <separator name="electronic convergence" >
    <i type="int" name="NELM">   100</i>
    <i type="int" name="NELMDL">    -5</i>
    <i type="int" name="NELMIN">     2</i>
    <i name="ENINI">    520.00000000</i>
    <separator name="electronic convergence detail" >
     <i type="logical" name="LDIAG"> T  </i>
     <i type="logical" name="LSUBROT"> F  </i>
     <i name="WEIMIN">      0.00100000</i>
     <i name="EBREAK">      0.00000000</i>
     <i name="DEPER">      0.30000000</i>
     <i type="int" name="NRMM">     4</i>
     <i name="TIME">      0.40000000</i>
    </separator>
   </separator>
   <separator name="electronic mixer" >
    <i name="AMIX">      0.40000000</i>
    <i name="BMIX">      1.00000000</i>
    <i name="AMIN">      0.10000000</i>
    <i name="AMIX_MAG">      1.60000000</i>
    <i name="BMIX_MAG">      1.00000000</i>
    <separator name="electronic mixer details" >
     <i type="int" name="IMIX">     4</i>
     <i type="logical" name="MIXFIRST"> F  </i>
     <i type="int" name="MAXMIX">   -45</i>
     <i name="WC">    100.00000000</i>
     <i type="int" name="INIMIX">     1</i>
     <i type="int" name="MIXPRE">     1</i>
     <i type="int" name="MREMOVE">     5</i>
    </separator>
   </separator>
   <separator name="electronic dipolcorrection" >
    <i type="logical" name="LDIPOL"> F  </i>
    <i type="logical" name="LMONO"> F  </i>
    <i type="int" name="IDIPOL">     0</i>
    <i name="EPSILON">      1.00000000</i>
    <v name="DIPOL">   -100.00000000   -100.00000000   -100.00000000</v>
    <i name="EFIELD">      0.00000000</i>
   </separator>
  </separator>
  <separator name="grids" >
   <i type="int" name="NGX">    30</i>
   <i type="int" name="NGY">    30</i>
   <i type="int" name="NGZ">    30</i>
   <i type="int" name="NGXF">    60</i>
   <i type="int" name="NGYF">    60</i>
   <i type="int" name="NGZF">    60</i>
   <i type="logical" name="ADDGRID"> F  </i>
  </separator>
  <separator name="ionic" >
   <i type="int" name="NSW">     1</i>
   <i type="int" name="IBRION">     8</i>
   <i type="int" name="MDALGO">     0</i>
   <i type="int" name="ISIF">     2</i>
   <i name="PSTRESS">      0.00000000</i>
   <i name="EDIFFG">      0.00000010</i>
   <i type="int" name="NFREE">     0</i>
   <i name="POTIM">      0.50000000</i>
   <i name="SMASS">     -3.00000000</i>
   <i name="SCALEE">      1.00000000</i>
  </separator>
  <separator name="ionic md" >
   <i name="TEBEG">      0.00010000</i>
   <i name="TEEND">      0.00010000</i>
   <i type="int" name="NBLOCK">     1</i>
   <i type="int" name="KBLOCK">     1</i>
   <i type="int" name="NPACO">   256</i>
   <i name="APACO">     16.00000000</i>
  </separator>
  <separator name="symmetry" >
   <i type="int" name="ISYM">     2</i>
   <i name="SYMPREC">      0.00000001</i>
  </separator>
  <separator name="dos" >
   <i type="int" name="LORBIT">     0</i>
   <v name="RWIGS">     -1.00000000</v>
   <i type="int" name="NEDOS">   301</i>
   <i name="EMIN">     10.00000000</i>
   <i name="EMAX">    -10.00000000</i>
   <i name="EFERMI">      0.00000000</i>
  </separator>
  <separator name="writing" >
   <i type="int" name="NWRITE">     2</i>
   <i type="logical" name="LWAVE"> F  </i>
   <i type="logical" name="LDOWNSAMPLE"> F  </i>
   <i type="logical" name="LCHARG"> T  </i>
   <i type="logical" name="LPARD"> F  </i>
   <i type="logical" name="LVTOT"> F  </i>
   <i type="logical" name="LVHAR"> F  </i>
   <i type="logical" name="LELF"> F  </i>
   <i type="logical" name="LOPTICS"> F  </i>
   <v name="STM">      0.00000000      0.00000000      0.00000000      0.00000000      0.00000000      0.00000000      0.00000000</v>
  </separator>
  <separator name="performance" >
   <i type="int" name="NPAR">     8</i>
   <i type="int" name="NSIM">     4</i>
   <i type="int" name="NBLK">    -1</i>
   <i type="logical" name="LPLANE"> T  </i>
   <i type="logical" name="LSCALAPACK"> T  </i>
   <i type="logical" name="LSCAAWARE"> F  </i>
   <i type="logical" name="LSCALU"> F  </i>
   <i type="logical" name="LASYNC"> F  </i>
   <i type="logical" name="LORBITALREAL"> F  </i>
  </separator>
  <separator name="miscellaneous" >
   <i type="int" name="IDIOT">     3</i>
   <i type="int" name="ISPECIAL">     0</i>
   <i type="logical" name="LMUSIC"> F  </i>
   <v name="POMASS">     83.80000000</v>
   <v name="DARWINR">      0.00000000</v>
   <v name="DARWINV">      1.00000000</v>
   <i type="logical" name="LCORR"> T  </i>
  </separator>
  <i type="logical" name="GGA_COMPAT"> T  </i>
  <i type="logical" name="LBERRY"> F  </i>
  <i type="int" name="ICORELEVEL">     0</i>
  <i type="logical" name="LDAU"> F  </i>
  <i type="int" name="I_CONSTRAINED_M">     0</i>
  <separator name="electronic exchange-correlation" >
   <i type="string" name="GGA">--</i>
   <i type="int" name="VOSKOWN">     0</i>
   <i type="logical" name="LHFCALC"> F  </i>
   <i type="string" name="PRECFOCK"></i>
   <i type="logical" name="LSYMGRAD"> F  </i>
   <i type="logical" name="LHFONE"> F  </i>
   <i type="logical" name="LRHFCALC"> F  </i>
   <i type="logical" name="LTHOMAS"> F  </i>
   <i type="logical" name="LMODELHF"> F  </i>
   <i name="ENCUT4O">     -1.00000000</i>
   <i type="int" name="EXXOEP">     0</i>
   <i type="int" name="FOURORBIT">     0</i>
   <i name="AEXX">      0.00000000</i>
   <i name="HFALPHA">      0.00000000</i>
   <i name="MCALPHA">      0.00000000</i>
   <i name="ALDAX">      1.00000000</i>
   <i name="AGGAX">      1.00000000</i>
   <i name="ALDAC">      1.00000000</i>
   <i name="AGGAC">      1.00000000</i>
   <i type="int" name="NKREDX">     1</i>
   <i type="int" name="NKREDY">     1</i>
   <i type="int" name="NKREDZ">     1</i>
   <i type="logical" name="SHIFTRED"> F  </i>
   <i type="logical" name="ODDONLY"> F  </i>
   <i type="logical" name="EVENONLY"> F  </i>
   <i type="int" name="LMAXFOCK">     0</i>
   <i type="int" name="NMAXFOCKAE">     0</i>
   <i type="logical" name="LFOCKAEDFT"> F  </i>
   <i name="HFSCREEN">      0.00000000</i>
   <i name="HFSCREENC">      0.00000000</i>
   <i type="int" name="NBANDSGWLOW">     0</i>
  </separator>
  <separator name="vdW DFT" >
   <i type="logical" name="LUSE_VDW"> F  </i>
   <i name="Zab_VDW">     -0.84910000</i>
   <i name="PARAM1">      0.12340000</i>
   <i name="PARAM2">      1.00000000</i>
   <i name="PARAM3">      0.00000000</i>
  </separator>
  <separator name="model GW" >
   <i type="int" name="MODEL_GW">     0</i>
   <i name="MODEL_EPS0">     29.16139178</i>
   <i name="MODEL_ALPHA">      1.00000000</i>
  </separator>
  <separator name="linear response parameters" >
   <i type="logical" name="LEPSILON"> T  </i>
   <i type="logical" name="LRPA"> F  </i>
   <i type="logical" name="LNABLA"> F  </i>
   <i type="logical" name="LVEL"> F  </i>
   <i type="int" name="KINTER">     0</i>
   <i name="CSHIFT">      0.10000000</i>
   <i name="OMEGAMAX">     -1.00000000</i>
   <i name="DEG_THRESHOLD">      0.00200000</i>
   <i name="RTIME">     -0.10000000</i>
   <i name="WPLASMAI">      0.00000000</i>
   <v name="DFIELD">      0.00000000      0.00000000      0.00000000</v>
   <v name="WPLASMA">      0.00000000      0.00000000      0.00000000      0.00000000      0.00000000      0.00000000      0.00000000      0.00000000      0.00000000</v>
  </separator>
  <separator name="orbital magnetization" >
   <i type="logical" name="NUCIND"> F  </i>
   <v name="MAGPOS">      0.00000000      0.00000000      0.00000000</v>
   <i type="logical" name="LNICSALL"> T  </i>
   <i type="logical" name="ORBITALMAG"> F  </i>
   <i type="logical" name="LMAGBLOCH"> F  </i>
   <i type="logical" name="LCHIMAG"> F  </i>
   <i type="logical" name="LGAUGE"> T  </i>
   <i type="int" name="MAGATOM">     0</i>
   <v name="MAGDIPOL">      0.00000000      0.00000000      0.00000000</v>
   <v name="AVECCONST">      0.00000000      0.00000000      0.00000000</v>
  </separator>
  <separator name="response functions" >
   <i type="logical" name="LADDER"> F  </i>
   <i type="logical" name="LRPAFORCE"> F  </i>
   <i type="logical" name="LFXC"> F  </i>
   <i type="logical" name="LHARTREE"> T  </i>
   <i type="int" name="IBSE">     0</i>
   <v type="int" name="KPOINT">    -1     0     0     0</v>
   <i type="logical" name="LTCTE"> F  </i>
   <i type="logical" name="LTETE"> F  </i>
   <i type="logical" name="LTRIPLET"> F  </i>
   <i type="logical" name="LFXCEPS"> F  </i>
   <i type="logical" name="LFXHEG"> F  </i>
   <i type="int" name="NATURALO">     2</i>
   <i type="logical" name="L2ORDER"> F  </i>
   <i type="logical" name="LMP2LT"> F  </i>
   <i type="logical" name="LUSEW"> F  </i>
   <i name="ENCUTGW">     -2.00000000</i>
   <i name="ENCUTGWSOFT">     -2.00000000</i>
   <i name="ENCUTLF">     -1.00000000</i>
   <i type="int" name="LMAXMP2">    -1</i>
   <i name="SCISSOR">      0.00000000</i>
   <i type="int" name="NOMEGA">     0</i>
   <i type="int" name="NOMEGAR">     0</i>
   <i type="int" name="NBANDSGW">    -1</i>
   <i type="int" name="NBANDSO">    -1</i>
   <i type="int" name="NBANDSV">    -1</i>
   <i type="int" name="NELM">   100</i>
   <i type="int" name="NELMHF">     1</i>
   <i type="int" name="DIM">     3</i>
   <i type="int" name="ANTIRES">     0</i>
   <i name="OMEGAMAX">    -30.00000000</i>
   <i name="OMEGAMIN">    -30.00000000</i>
   <i name="OMEGATL">   -200.00000000</i>
   <i type="int" name="OMEGAGRID">   140</i>
   <i name="CSHIFT">     -0.10000000</i>
   <i type="logical" name="SELFENERGY"> F  </i>
   <i type="logical" name="LSPECTRAL"> F  </i>
   <i type="logical" name="LSPECTRALGW"> F  </i>
   <i type="logical" name="LSINGLES"> F  </i>
   <i type="logical" name="LFERMIGW"> F  </i>
   <i type="logical" name="ODDONLYGW"> F  </i>
   <i type="logical" name="EVENONLYGW"> F  </i>
   <i type="int" name="NKREDLFX">     1</i>
   <i type="int" name="NKREDLFY">     1</i>
   <i type="int" name="NKREDLFZ">     1</i>
   <i type="int" name="MAXMEM">  2800</i>
   <i type="int" name="TELESCOPE">     0</i>
   <i type="int" name="TAUPAR">     1</i>
   <i type="int" name="OMEGAPAR">    -1</i>
   <i name="LAMBDA">      1.00000000</i>
  </separator>
  <separator name="External order field" >
   <i name="OFIELD_KAPPA">      0.00000000</i>
   <v name="OFIELD_K">      0.00000000      0.00000000      0.00000000</v>
   <i name="OFIELD_Q6_NEAR">      0.00000000</i>
   <i name="OFIELD_Q6_FAR">      0.00000000</i>
   <i name="OFIELD_A">      0.00000000</i>
  </separator>
 </parameters>
 <atominfo>
  <atoms>       1 </atoms>
  <types>       1 </types>
  <array name="atoms" >
   <dimension dim="1">ion</dimension>
   <field type="string">element</field>
   <field type="int">atomtype</field>
   <set>
    <rc><c>Kr</c><c>   1</c></rc>
   </set>
  </array>
  <array name="atomtypes" >
   <dimension dim="1">type</dimension>
   <field type="int">atomspertype</field>
   <field type="string">element</field>
   <field>mass</field>
   <field>valence</field>
   <field type="string">pseudopotential</field>
   <set>
    <rc><c>   1</c><c>Kr</c><c>     83.80000000</c><c>      8.00000000</c><c>  PAW_PBE Kr 07Sep2000                  </c></rc>
   </set>
  </array>
 </atominfo>
 <structure name="initialpos" >
  <crystal>
   <varray name="basis" >
    <v>      -2.89651424       0.00000000       2.89651424 </v>
    <v>       0.00000000       2.89651424       2.89651424 </v>
    <v>      -2.89651424       2.89651424       0.00000000 </v>
   </varray>
   <i name="volume">     48.60231964 </i>
   <varray name="rec_basis" >
    <v>      -0.17262128      -0.17262128       0.17262128 </v>
    <v>       0.17262128       0.17262128       0.17262128 </v>
    <v>      -0.17262128       0.17262128      -0.17262128 </v>
   </varray>
  </crystal>
  <varray name="positions" >
   <v>       0.00000000       0.00000000       0.00000000 </v>
  </varray>
 </structure>
 <calculation>
  <scstep>
   <time name="dav">    0.30    0.30</time>
   <time name="total">    0.32    0.32</time>
   <energy>
    <i name="alphaZ">     15.80860744 </i>
    <i name="ewald">   -364.69235881 </i>
    <i name="hartreedc">   -105.86255198 </i>
    <i name="XCdc">     20.56895635 </i>
    <i name="pawpsdc">    404.86091170 </i>
    <i name="pawaedc">   -405.18261072 </i>
    <i name="eentropy">     -0.00003439 </i>
    <i name="bandstr">    -33.51415582 </i>
    <i name="atom">    506.73414284 </i>
    <i name="e_fr_energy">     38.72090660 </i>
    <i name="e_wo_entrp">     38.72094099 </i>
    <i name="e_0_energy">     38.72092380 </i>
   </energy>
  </scstep>
  <scstep>
   <time name="dav">    0.40    0.40</time>
   <time name="total">    0.40    0.40</time>
   <energy>
    <i name="e_fr_energy">      1.58905941 </i>
    <i name="e_wo_entrp">      1.58905941 </i>
    <i name="e_0_energy">      1.58905941 </i>
   </energy>
  </scstep>
  <scstep>
   <time name="dav">    0.35    0.35</time>
   <time name="total">    0.35    0.35</time>
   <energy>
    <i name="e_fr_energy">     -0.01832117 </i>
    <i name="e_wo_entrp">     -0.01832117 </i>
    <i name="e_0_energy">     -0.01832117 </i>
   </energy>
  </scstep>
  <scstep>
   <time name="dav">    0.43    0.43</time>
   <time name="total">    0.43    0.43</time>
   <energy>
    <i name="e_fr_energy">     -0.02424218 </i>
    <i name="e_wo_entrp">     -0.02424218 </i>
    <i name="e_0_energy">     -0.02424218 </i>
   </energy>
  </scstep>
  <scstep>
   <time name="dav">    0.36    0.36</time>
   <time name="total">    0.41    0.41</time>
   <energy>
    <i name="e_fr_energy">     -0.02424990 </i>
    <i name="e_wo_entrp">     -0.02424990 </i>
    <i name="e_0_energy">     -0.02424990 </i>
   </energy>
  </scstep>
  <scstep>
   <time name="dav">    0.45    0.46</time>
   <time name="total">    0.52    0.52</time>
   <energy>
    <i name="e_fr_energy">     -0.02426191 </i>
    <i name="e_wo_entrp">     -0.02426191 </i>
    <i name="e_0_energy">     -0.02426191 </i>
   </energy>
  </scstep>
  <scstep>
   <time name="dav">    0.36    0.36</time>
   <time name="total">    0.42    0.43</time>
   <energy>
    <i name="e_fr_energy">     -0.02427745 </i>
    <i name="e_wo_entrp">     -0.02427745 </i>
    <i name="e_0_energy">     -0.02427745 </i>
   </energy>
  </scstep>
  <scstep>
   <time name="dav">    0.33    0.33</time>
   <time name="total">    0.38    0.38</time>
   <energy>
    <i name="e_fr_energy">     -0.02428181 </i>
    <i name="e_wo_entrp">     -0.02428181 </i>
    <i name="e_0_energy">     -0.02428181 </i>
   </energy>
  </scstep>
  <scstep>
   <time name="dav">    0.47    0.47</time>
   <time name="total">    0.54    0.54</time>
   <energy>
    <i name="e_fr_energy">     -0.02428161 </i>
    <i name="e_wo_entrp">     -0.02428161 </i>
    <i name="e_0_energy">     -0.02428161 </i>
   </energy>
  </scstep>
  <scstep>
   <time name="dav">    0.34    0.34</time>
   <time name="total">    0.39    0.39</time>
   <energy>
    <i name="e_fr_energy">     -0.02428155 </i>
    <i name="e_wo_entrp">     -0.02428155 </i>
    <i name="e_0_energy">     -0.02428155 </i>
   </energy>
  </scstep>
  <scstep>
   <time name="dav">    0.30    0.30</time>
   <time name="total">    0.37    0.37</time>
   <energy>
    <i name="e_fr_energy">     -0.02428153 </i>
    <i name="e_wo_entrp">     -0.02428153 </i>
    <i name="e_0_energy">     -0.02428153 </i>
   </energy>
  </scstep>
  <scstep>
   <time name="dav">    0.24    0.24</time>
   <time name="total">    0.25    0.25</time>
   <energy>
    <i name="alphaZ">     15.80860744 </i>
    <i name="ewald">   -364.69235881 </i>
    <i name="hartreedc">   -105.96729522 </i>
    <i name="XCdc">     20.57608113 </i>
    <i name="pawpsdc">    405.09243195 </i>
    <i name="pawaedc">   -405.41567821 </i>
    <i name="eentropy">     -0.00000000 </i>
    <i name="bandstr">    -72.16021265 </i>
    <i name="atom">    506.73414284 </i>
    <i name="e_fr_energy">     -0.02428152 </i>
    <i name="e_wo_entrp">     -0.02428152 </i>
    <i name="e_0_energy">     -0.02428152 </i>
   </energy>
  </scstep>
  <structure>
   <crystal>
    <varray name="basis" >
     <v>      -2.89651424       0.00000000       2.89651424 </v>
     <v>       0.00000000       2.89651424       2.89651424 </v>
     <v>      -2.89651424       2.89651424       0.00000000 </v>
    </varray>
    <i name="volume">     48.60231964 </i>
    <varray name="rec_basis" >
     <v>      -0.17262128      -0.17262128       0.17262128 </v>
     <v>       0.17262128       0.17262128       0.17262128 </v>
     <v>      -0.17262128       0.17262128      -0.17262128 </v>
    </varray>
   </crystal>
   <varray name="positions" >
    <v>       0.00000000       0.00000000       0.00000000 </v>
   </varray>
  </structure>
  <varray name="forces" >
   <v>       0.00000000       0.00000000       0.00000000 </v>
  </varray>
  <varray name="stress" >
   <v>       5.79099552       0.00000000      -0.00000000 </v>
   <v>      -0.00000000       5.79099552       0.00000000 </v>
   <v>       0.00000000       0.00000000       5.79099552 </v>
  </varray>
  <energy>
   <i name="e_fr_energy">     -0.02428152 </i>
   <i name="e_wo_entrp">     -0.02428152 </i>
   <i name="e_0_energy">     -0.00000000 </i>
  </energy>
  <scstep>
   <time name="total">    0.42    0.42</time>
   <energy>
    <i name="e_fr_energy">     -0.16047213 </i>
    <i name="e_wo_entrp">     -0.16047213 </i>
    <i name="e_0_energy">     -0.16047213 </i>
   </energy>
  </scstep>
  <scstep>
   <time name="total">    0.41    0.41</time>
   <energy>
    <i name="e_fr_energy">     -0.16143279 </i>
    <i name="e_wo_entrp">     -0.16143279 </i>
    <i name="e_0_energy">     -0.16143279 </i>
   </energy>
  </scstep>
  <scstep>
   <time name="total">    0.41    0.41</time>
   <energy>
    <i name="e_fr_energy">     -0.16143473 </i>
    <i name="e_wo_entrp">     -0.16143473 </i>
    <i name="e_0_energy">     -0.16143473 </i>
   </energy>
  </scstep>
  <scstep>
   <time name="total">    0.40    0.40</time>
   <energy>
    <i name="e_fr_energy">     -0.16143474 </i>
    <i name="e_wo_entrp">     -0.16143474 </i>
    <i name="e_0_energy">     -0.16143474 </i>
   </energy>
  </scstep>
  <scstep>
   <time name="total">    0.35    0.35</time>
   <energy>
    <i name="e_fr_energy">     -0.16143474 </i>
    <i name="e_wo_entrp">     -0.16143474 </i>
    <i name="e_0_energy">     -0.16143474 </i>
   </energy>
  </scstep>
  <scstep>
   <time name="total">    0.41    0.41</time>
   <energy>
    <i name="e_fr_energy">     -0.15669631 </i>
    <i name="e_wo_entrp">     -0.15669631 </i>
    <i name="e_0_energy">     -0.15669631 </i>
   </energy>
  </scstep>
  <scstep>
   <time name="total">    0.41    0.41</time>
   <energy>
    <i name="e_fr_energy">     -0.15757417 </i>
    <i name="e_wo_entrp">     -0.15757417 </i>
    <i name="e_0_energy">     -0.15757417 </i>
   </energy>
  </scstep>
  <scstep>
   <time name="total">    0.41    0.41</time>
   <energy>
    <i name="e_fr_energy">     -0.15757630 </i>
    <i name="e_wo_entrp">     -0.15757630 </i>
    <i name="e_0_energy">     -0.15757630 </i>
   </energy>
  </scstep>
  <scstep>
   <time name="total">    0.41    0.41</time>
   <energy>
    <i name="e_fr_energy">     -0.15757631 </i>
    <i name="e_wo_entrp">     -0.15757631 </i>
    <i name="e_0_energy">     -0.15757631 </i>
   </energy>
  </scstep>
  <scstep>
   <time name="total">    0.41    0.41</time>
   <energy>
    <i name="e_fr_energy">     -0.12882081 </i>
    <i name="e_wo_entrp">     -0.12882081 </i>
    <i name="e_0_energy">     -0.12882081 </i>
   </energy>
  </scstep>
  <scstep>
   <time name="total">    0.41    0.41</time>
   <energy>
    <i name="e_fr_energy">     -0.12926362 </i>
    <i name="e_wo_entrp">     -0.12926362 </i>
    <i name="e_0_energy">     -0.12926362 </i>
   </energy>
  </scstep>
  <scstep>
   <time name="total">    0.41    0.41</time>
   <energy>
    <i name="e_fr_energy">     -0.12926537 </i>
    <i name="e_wo_entrp">     -0.12926537 </i>
    <i name="e_0_energy">     -0.12926537 </i>
   </energy>
  </scstep>
  <scstep>
   <time name="total">    0.41    0.41</time>
   <energy>
    <i name="e_fr_energy">     -0.12926538 </i>
    <i name="e_wo_entrp">     -0.12926538 </i>
    <i name="e_0_energy">     -0.12926538 </i>
   </energy>
  </scstep>
  <varray name="epsilon_rpa" >
   <v>       2.11266378      -0.00000000       0.00000000 </v>
   <v>       0.00000000       2.11266378      -0.00000000 </v>
   <v>      -0.00000000       0.00000000       2.11266378 </v>
  </varray>
  <kpoints>
   <generation param="Gamma">
    <v type="int" name="divisions">      14       14       14 </v>
    <v name="usershift">      0.00000000       0.00000000       0.00000000 </v>
    <v name="genvec1">      0.07142857       0.00000000       0.00000000 </v>
    <v name="genvec2">      0.00000000       0.07142857      -0.00000000 </v>
    <v name="genvec3">     -0.00000000      -0.00000000       0.07142857 </v>
    <v name="shift">      0.00000000       0.00000000       0.00000000 </v>
   </generation>
   <varray name="kpointlist" >
    <v>       0.00000000       0.00000000       0.00000000 </v>
    <v>       0.07142857       0.00000000       0.00000000 </v>
    <v>       0.14285714       0.00000000       0.00000000 </v>
    <v>       0.21428571      -0.00000000      -0.00000000 </v>
    <v>       0.28571429      -0.00000000       0.00000000 </v>
    <v>       0.35714286       0.00000000       0.00000000 </v>
    <v>       0.42857143      -0.00000000      -0.00000000 </v>
    <v>       0.50000000      -0.00000000       0.00000000 </v>
    <v>       0.07142857       0.07142857       0.00000000 </v>
    <v>       0.14285714       0.07142857       0.00000000 </v>
    <v>       0.21428571       0.07142857       0.00000000 </v>
    <v>       0.28571429       0.07142857       0.00000000 </v>
    <v>       0.35714286       0.07142857       0.00000000 </v>
    <v>       0.42857143       0.07142857       0.00000000 </v>
    <v>       0.50000000       0.07142857       0.00000000 </v>
    <v>      -0.42857143       0.07142857       0.00000000 </v>
    <v>      -0.35714286       0.07142857      -0.00000000 </v>
    <v>      -0.28571429       0.07142857      -0.00000000 </v>
    <v>      -0.21428571       0.07142857       0.00000000 </v>
    <v>      -0.14285714       0.07142857      -0.00000000 </v>
    <v>      -0.07142857       0.07142857      -0.00000000 </v>
    <v>       0.14285714       0.14285714       0.00000000 </v>
    <v>       0.21428571       0.14285714      -0.00000000 </v>
    <v>       0.28571429       0.14285714       0.00000000 </v>
    <v>       0.35714286       0.14285714       0.00000000 </v>
    <v>       0.42857143       0.14285714       0.00000000 </v>
    <v>       0.50000000       0.14285714       0.00000000 </v>
    <v>      -0.42857143       0.14285714       0.00000000 </v>
    <v>      -0.35714286       0.14285714      -0.00000000 </v>
    <v>      -0.28571429       0.14285714       0.00000000 </v>
    <v>      -0.21428571       0.14285714      -0.00000000 </v>
    <v>      -0.14285714       0.14285714      -0.00000000 </v>
    <v>       0.21428571       0.21428571       0.00000000 </v>
    <v>       0.28571429       0.21428571       0.00000000 </v>
    <v>       0.35714286       0.21428571       0.00000000 </v>
    <v>       0.42857143       0.21428571       0.00000000 </v>
    <v>       0.50000000       0.21428571       0.00000000 </v>
    <v>      -0.42857143       0.21428571      -0.00000000 </v>
    <v>      -0.35714286       0.21428571       0.00000000 </v>
    <v>      -0.28571429       0.21428571       0.00000000 </v>
    <v>      -0.21428571       0.21428571       0.00000000 </v>
    <v>       0.28571429       0.28571429       0.00000000 </v>
    <v>       0.35714286       0.28571429       0.00000000 </v>
    <v>       0.42857143       0.28571429       0.00000000 </v>
    <v>       0.50000000       0.28571429       0.00000000 </v>
    <v>      -0.42857143       0.28571429      -0.00000000 </v>
    <v>      -0.35714286       0.28571429      -0.00000000 </v>
    <v>      -0.28571429       0.28571429       0.00000000 </v>
    <v>       0.35714286       0.35714286       0.00000000 </v>
    <v>       0.42857143       0.35714286       0.00000000 </v>
    <v>       0.50000000       0.35714286       0.00000000 </v>
    <v>      -0.42857143       0.35714286       0.00000000 </v>
    <v>      -0.35714286       0.35714286       0.00000000 </v>
    <v>       0.42857143       0.42857143       0.00000000 </v>
    <v>       0.50000000       0.42857143       0.00000000 </v>
    <v>      -0.42857143       0.42857143       0.00000000 </v>
    <v>       0.50000000       0.50000000       0.00000000 </v>
    <v>       0.07142857       0.00000000       0.07142857 </v>
    <v>       0.14285714      -0.00000000       0.07142857 </v>
    <v>       0.21428571      -0.00000000       0.07142857 </v>
    <v>       0.28571429      -0.00000000       0.07142857 </v>
    <v>       0.35714286       0.00000000       0.07142857 </v>
    <v>       0.42857143      -0.00000000       0.07142857 </v>
    <v>       0.50000000      -0.00000000       0.07142857 </v>
    <v>      -0.42857143       0.00000000       0.07142857 </v>
    <v>      -0.35714286      -0.00000000       0.07142857 </v>
    <v>      -0.28571429      -0.00000000       0.07142857 </v>
    <v>      -0.21428571       0.00000000       0.07142857 </v>
    <v>      -0.14285714      -0.00000000       0.07142857 </v>
    <v>      -0.07142857      -0.00000000       0.07142857 </v>
    <v>       0.21428571       0.14285714       0.07142857 </v>
    <v>       0.28571429       0.14285714       0.07142857 </v>
    <v>       0.35714286       0.14285714       0.07142857 </v>
    <v>       0.42857143       0.14285714       0.07142857 </v>
    <v>       0.50000000       0.14285714       0.07142857 </v>
    <v>      -0.42857143       0.14285714       0.07142857 </v>
    <v>       0.14285714       0.21428571       0.07142857 </v>
    <v>       0.28571429       0.21428571       0.07142857 </v>
    <v>       0.35714286       0.21428571       0.07142857 </v>
    <v>       0.42857143       0.21428571       0.07142857 </v>
    <v>       0.50000000       0.21428571       0.07142857 </v>
    <v>      -0.42857143       0.21428571       0.07142857 </v>
    <v>      -0.35714286       0.21428571       0.07142857 </v>
    <v>      -0.28571429       0.21428571       0.07142857 </v>
    <v>      -0.21428571       0.21428571       0.07142857 </v>
    <v>      -0.14285714       0.21428571       0.07142857 </v>
    <v>       0.14285714       0.28571429       0.07142857 </v>
    <v>       0.21428571       0.28571429       0.07142857 </v>
    <v>       0.35714286       0.28571429       0.07142857 </v>
    <v>       0.42857143       0.28571429       0.07142857 </v>
    <v>       0.50000000       0.28571429       0.07142857 </v>
    <v>      -0.42857143       0.28571429       0.07142857 </v>
    <v>      -0.35714286       0.28571429       0.07142857 </v>
    <v>      -0.28571429       0.28571429       0.07142857 </v>
    <v>      -0.21428571       0.28571429       0.07142857 </v>
    <v>       0.14285714       0.35714286       0.07142857 </v>
    <v>       0.21428571       0.35714286       0.07142857 </v>
    <v>       0.28571429       0.35714286       0.07142857 </v>
    <v>       0.42857143       0.35714286       0.07142857 </v>
    <v>       0.50000000       0.35714286       0.07142857 </v>
    <v>      -0.42857143       0.35714286       0.07142857 </v>
    <v>      -0.35714286       0.35714286       0.07142857 </v>
    <v>      -0.28571429       0.35714286       0.07142857 </v>
    <v>       0.14285714       0.42857143       0.07142857 </v>
    <v>       0.21428571       0.42857143       0.07142857 </v>
    <v>       0.28571429       0.42857143       0.07142857 </v>
    <v>       0.35714286       0.42857143       0.07142857 </v>
    <v>       0.50000000       0.42857143       0.07142857 </v>
    <v>      -0.42857143       0.42857143       0.07142857 </v>
    <v>      -0.35714286       0.42857143       0.07142857 </v>
    <v>       0.14285714       0.50000000       0.07142857 </v>
    <v>       0.21428571       0.50000000       0.07142857 </v>
    <v>       0.28571429       0.50000000       0.07142857 </v>
    <v>       0.35714286       0.50000000       0.07142857 </v>
    <v>       0.42857143       0.50000000       0.07142857 </v>
    <v>      -0.42857143       0.50000000       0.07142857 </v>
    <v>       0.14285714      -0.42857143       0.07142857 </v>
    <v>       0.21428571      -0.42857143       0.07142857 </v>
    <v>       0.28571429      -0.42857143       0.07142857 </v>
    <v>       0.35714286      -0.42857143       0.07142857 </v>
    <v>       0.42857143      -0.42857143       0.07142857 </v>
    <v>       0.50000000      -0.42857143       0.07142857 </v>
    <v>       0.14285714      -0.35714286       0.07142857 </v>
    <v>       0.21428571      -0.35714286       0.07142857 </v>
    <v>       0.28571429      -0.35714286       0.07142857 </v>
    <v>       0.35714286      -0.35714286       0.07142857 </v>
    <v>       0.42857143      -0.35714286       0.07142857 </v>
    <v>       0.14285714      -0.28571429       0.07142857 </v>
    <v>       0.21428571      -0.28571429       0.07142857 </v>
    <v>       0.28571429      -0.28571429       0.07142857 </v>
    <v>       0.35714286      -0.28571429       0.07142857 </v>
    <v>       0.14285714      -0.21428571       0.07142857 </v>
    <v>       0.21428571      -0.21428571       0.07142857 </v>
    <v>       0.28571429      -0.21428571       0.07142857 </v>
    <v>       0.14285714      -0.14285714       0.07142857 </v>
    <v>       0.21428571      -0.14285714       0.07142857 </v>
    <v>       0.14285714      -0.07142857       0.07142857 </v>
    <v>       0.14285714       0.00000000       0.14285714 </v>
    <v>       0.21428571       0.00000000       0.14285714 </v>
    <v>       0.28571429       0.00000000       0.14285714 </v>
    <v>       0.35714286       0.00000000       0.14285714 </v>
    <v>       0.42857143      -0.00000000       0.14285714 </v>
    <v>       0.50000000      -0.00000000       0.14285714 </v>
    <v>      -0.42857143       0.00000000       0.14285714 </v>
    <v>      -0.35714286       0.00000000       0.14285714 </v>
    <v>      -0.28571429       0.00000000       0.14285714 </v>
    <v>      -0.21428571       0.00000000       0.14285714 </v>
    <v>      -0.14285714       0.00000000       0.14285714 </v>
    <v>       0.42857143       0.28571429       0.14285714 </v>
    <v>       0.50000000       0.28571429       0.14285714 </v>
    <v>      -0.42857143       0.28571429       0.14285714 </v>
    <v>      -0.35714286       0.28571429       0.14285714 </v>
    <v>       0.21428571       0.35714286       0.14285714 </v>
    <v>       0.50000000       0.35714286       0.14285714 </v>
    <v>      -0.42857143       0.35714286       0.14285714 </v>
    <v>      -0.35714286       0.35714286       0.14285714 </v>
    <v>      -0.28571429       0.35714286       0.14285714 </v>
    <v>      -0.21428571       0.35714286       0.14285714 </v>
    <v>       0.21428571       0.42857143       0.14285714 </v>
    <v>       0.28571429       0.42857143       0.14285714 </v>
    <v>      -0.42857143       0.42857143       0.14285714 </v>
    <v>      -0.35714286       0.42857143       0.14285714 </v>
    <v>      -0.28571429       0.42857143       0.14285714 </v>
    <v>       0.21428571       0.50000000       0.14285714 </v>
    <v>       0.28571429       0.50000000       0.14285714 </v>
    <v>       0.35714286       0.50000000       0.14285714 </v>
    <v>      -0.35714286       0.50000000       0.14285714 </v>
    <v>       0.21428571      -0.42857143       0.14285714 </v>
    <v>       0.28571429      -0.42857143       0.14285714 </v>
    <v>       0.35714286      -0.42857143       0.14285714 </v>
    <v>       0.42857143      -0.42857143       0.14285714 </v>
    <v>       0.21428571      -0.35714286       0.14285714 </v>
    <v>       0.28571429      -0.35714286       0.14285714 </v>
    <v>       0.35714286      -0.35714286       0.14285714 </v>
    <v>       0.42857143      -0.35714286       0.14285714 </v>
    <v>       0.50000000      -0.35714286       0.14285714 </v>
    <v>       0.21428571      -0.28571429       0.14285714 </v>
    <v>       0.28571429      -0.28571429       0.14285714 </v>
    <v>       0.35714286      -0.28571429       0.14285714 </v>
    <v>       0.42857143      -0.28571429       0.14285714 </v>
    <v>       0.21428571      -0.21428571       0.14285714 </v>
    <v>       0.28571429      -0.21428571       0.14285714 </v>
    <v>       0.35714286      -0.21428571       0.14285714 </v>
    <v>       0.21428571      -0.14285714       0.14285714 </v>
    <v>       0.28571429      -0.14285714       0.14285714 </v>
    <v>       0.21428571      -0.07142857       0.14285714 </v>
    <v>       0.21428571       0.00000000       0.21428571 </v>
    <v>       0.28571429      -0.00000000       0.21428571 </v>
    <v>       0.35714286       0.00000000       0.21428571 </v>
    <v>       0.42857143      -0.00000000       0.21428571 </v>
    <v>       0.50000000      -0.00000000       0.21428571 </v>
    <v>      -0.42857143       0.00000000       0.21428571 </v>
    <v>      -0.35714286       0.00000000       0.21428571 </v>
    <v>      -0.28571429       0.00000000       0.21428571 </v>
    <v>      -0.21428571       0.00000000       0.21428571 </v>
    <v>      -0.35714286       0.42857143       0.21428571 </v>
    <v>      -0.28571429       0.42857143       0.21428571 </v>
    <v>       0.28571429       0.50000000       0.21428571 </v>
    <v>      -0.28571429       0.50000000       0.21428571 </v>
    <v>       0.28571429      -0.42857143       0.21428571 </v>
    <v>       0.35714286      -0.42857143       0.21428571 </v>
    <v>       0.28571429      -0.35714286       0.21428571 </v>
    <v>       0.35714286      -0.35714286       0.21428571 </v>
    <v>       0.42857143      -0.35714286       0.21428571 </v>
    <v>       0.28571429      -0.28571429       0.21428571 </v>
    <v>       0.35714286      -0.28571429       0.21428571 </v>
    <v>       0.42857143      -0.28571429       0.21428571 </v>
    <v>       0.50000000      -0.28571429       0.21428571 </v>
    <v>       0.28571429      -0.21428571       0.21428571 </v>
    <v>       0.35714286      -0.21428571       0.21428571 </v>
    <v>       0.42857143      -0.21428571       0.21428571 </v>
    <v>       0.28571429      -0.14285714       0.21428571 </v>
    <v>       0.35714286      -0.14285714       0.21428571 </v>
    <v>       0.28571429      -0.07142857       0.21428571 </v>
    <v>       0.28571429       0.00000000       0.28571429 </v>
    <v>       0.35714286       0.00000000       0.28571429 </v>
    <v>       0.42857143       0.00000000       0.28571429 </v>
    <v>       0.50000000       0.00000000       0.28571429 </v>
    <v>      -0.42857143       0.00000000       0.28571429 </v>
    <v>      -0.35714286      -0.00000000       0.28571429 </v>
    <v>      -0.28571429       0.00000000       0.28571429 </v>
    <v>       0.35714286      -0.35714286       0.28571429 </v>
    <v>       0.35714286      -0.28571429       0.28571429 </v>
    <v>       0.42857143      -0.28571429       0.28571429 </v>
    <v>       0.35714286      -0.21428571       0.28571429 </v>
    <v>       0.42857143      -0.21428571       0.28571429 </v>
    <v>       0.50000000      -0.21428571       0.28571429 </v>
    <v>       0.35714286      -0.14285714       0.28571429 </v>
    <v>       0.42857143      -0.14285714       0.28571429 </v>
    <v>       0.35714286      -0.07142857       0.28571429 </v>
    <v>       0.35714286       0.00000000       0.35714286 </v>
    <v>       0.42857143      -0.00000000       0.35714286 </v>
    <v>       0.50000000      -0.00000000       0.35714286 </v>
    <v>      -0.42857143       0.00000000       0.35714286 </v>
    <v>      -0.35714286      -0.00000000       0.35714286 </v>
    <v>       0.42857143      -0.21428571       0.35714286 </v>
    <v>       0.42857143      -0.14285714       0.35714286 </v>
    <v>       0.50000000      -0.14285714       0.35714286 </v>
    <v>       0.42857143      -0.07142857       0.35714286 </v>
    <v>       0.42857143       0.00000000       0.42857143 </v>
    <v>       0.50000000       0.00000000       0.42857143 </v>
    <v>      -0.42857143       0.00000000       0.42857143 </v>
    <v>       0.50000000      -0.07142857       0.42857143 </v>
    <v>       0.50000000       0.00000000       0.50000000 </v>
   </varray>
   <varray name="weights" >
    <v>       0.00036443 </v>
    <v>       0.00291545 </v>
    <v>       0.00291545 </v>
    <v>       0.00291545 </v>
    <v>       0.00291545 </v>
    <v>       0.00291545 </v>
    <v>       0.00291545 </v>
    <v>       0.00145773 </v>
    <v>       0.00145773 </v>
    <v>       0.00583090 </v>
    <v>       0.00583090 </v>
    <v>       0.00583090 </v>
    <v>       0.00583090 </v>
    <v>       0.00583090 </v>
    <v>       0.00583090 </v>
    <v>       0.00583090 </v>
    <v>       0.00583090 </v>
    <v>       0.00583090 </v>
    <v>       0.00583090 </v>
    <v>       0.00583090 </v>
    <v>       0.00291545 </v>
    <v>       0.00145773 </v>
    <v>       0.00583090 </v>
    <v>       0.00583090 </v>
    <v>       0.00583090 </v>
    <v>       0.00583090 </v>
    <v>       0.00583090 </v>
    <v>       0.00583090 </v>
    <v>       0.00583090 </v>
    <v>       0.00583090 </v>
    <v>       0.00583090 </v>
    <v>       0.00291545 </v>
    <v>       0.00145773 </v>
    <v>       0.00583090 </v>
    <v>       0.00583090 </v>
    <v>       0.00583090 </v>
    <v>       0.00583090 </v>
    <v>       0.00583090 </v>
    <v>       0.00583090 </v>
    <v>       0.00583090 </v>
    <v>       0.00291545 </v>
    <v>       0.00145773 </v>
    <v>       0.00583090 </v>
    <v>       0.00583090 </v>
    <v>       0.00583090 </v>
    <v>       0.00583090 </v>
    <v>       0.00583090 </v>
    <v>       0.00291545 </v>
    <v>       0.00145773 </v>
    <v>       0.00583090 </v>
    <v>       0.00583090 </v>
    <v>       0.00583090 </v>
    <v>       0.00291545 </v>
    <v>       0.00145773 </v>
    <v>       0.00583090 </v>
    <v>       0.00291545 </v>
    <v>       0.00072886 </v>
    <v>       0.00072886 </v>
    <v>       0.00291545 </v>
    <v>       0.00291545 </v>
    <v>       0.00291545 </v>
    <v>       0.00291545 </v>
    <v>       0.00291545 </v>
    <v>       0.00291545 </v>
    <v>       0.00291545 </v>
    <v>       0.00291545 </v>
    <v>       0.00291545 </v>
    <v>       0.00291545 </v>
    <v>       0.00291545 </v>
    <v>       0.00145773 </v>
    <v>       0.00291545 </v>
    <v>       0.00583090 </v>
    <v>       0.00583090 </v>
    <v>       0.00583090 </v>
    <v>       0.00583090 </v>
    <v>       0.00291545 </v>
    <v>       0.00291545 </v>
    <v>       0.00291545 </v>
    <v>       0.00583090 </v>
    <v>       0.00583090 </v>
    <v>       0.00583090 </v>
    <v>       0.00583090 </v>
    <v>       0.00583090 </v>
    <v>       0.00583090 </v>
    <v>       0.00583090 </v>
    <v>       0.00291545 </v>
    <v>       0.00583090 </v>
    <v>       0.00291545 </v>
    <v>       0.00291545 </v>
    <v>       0.00583090 </v>
    <v>       0.00583090 </v>
    <v>       0.00583090 </v>
    <v>       0.00583090 </v>
    <v>       0.00583090 </v>
    <v>       0.00291545 </v>
    <v>       0.00583090 </v>
    <v>       0.00583090 </v>
    <v>       0.00291545 </v>
    <v>       0.00291545 </v>
    <v>       0.00583090 </v>
    <v>       0.00583090 </v>
    <v>       0.00583090 </v>
    <v>       0.00291545 </v>
    <v>       0.00583090 </v>
    <v>       0.00583090 </v>
    <v>       0.00583090 </v>
    <v>       0.00291545 </v>
    <v>       0.00291545 </v>
    <v>       0.00583090 </v>
    <v>       0.00291545 </v>
    <v>       0.00583090 </v>
    <v>       0.00583090 </v>
    <v>       0.00583090 </v>
    <v>       0.00583090 </v>
    <v>       0.00291545 </v>
    <v>       0.00145773 </v>
    <v>       0.00583090 </v>
    <v>       0.00583090 </v>
    <v>       0.00583090 </v>
    <v>       0.00583090 </v>
    <v>       0.00583090 </v>
    <v>       0.00145773 </v>
    <v>       0.00583090 </v>
    <v>       0.00583090 </v>
    <v>       0.00583090 </v>
    <v>       0.00583090 </v>
    <v>       0.00291545 </v>
    <v>       0.00583090 </v>
    <v>       0.00583090 </v>
    <v>       0.00583090 </v>
    <v>       0.00291545 </v>
    <v>       0.00583090 </v>
    <v>       0.00583090 </v>
    <v>       0.00291545 </v>
    <v>       0.00583090 </v>
    <v>       0.00291545 </v>
    <v>       0.00291545 </v>
    <v>       0.00072886 </v>
    <v>       0.00291545 </v>
    <v>       0.00291545 </v>
    <v>       0.00291545 </v>
    <v>       0.00291545 </v>
    <v>       0.00291545 </v>
    <v>       0.00291545 </v>
    <v>       0.00291545 </v>
    <v>       0.00291545 </v>
    <v>       0.00291545 </v>
    <v>       0.00145773 </v>
    <v>       0.00291545 </v>
    <v>       0.00583090 </v>
    <v>       0.00583090 </v>
    <v>       0.00291545 </v>
    <v>       0.00291545 </v>
    <v>       0.00291545 </v>
    <v>       0.00583090 </v>
    <v>       0.00583090 </v>
    <v>       0.00583090 </v>
    <v>       0.00291545 </v>
    <v>       0.00583090 </v>
    <v>       0.00291545 </v>
    <v>       0.00291545 </v>
    <v>       0.00583090 </v>
    <v>       0.00291545 </v>
    <v>       0.00583090 </v>
    <v>       0.00583090 </v>
    <v>       0.00291545 </v>
    <v>       0.00145773 </v>
    <v>       0.00583090 </v>
    <v>       0.00583090 </v>
    <v>       0.00583090 </v>
    <v>       0.00291545 </v>
    <v>       0.00583090 </v>
    <v>       0.00583090 </v>
    <v>       0.00583090 </v>
    <v>       0.00583090 </v>
    <v>       0.00145773 </v>
    <v>       0.00583090 </v>
    <v>       0.00583090 </v>
    <v>       0.00583090 </v>
    <v>       0.00291545 </v>
    <v>       0.00583090 </v>
    <v>       0.00583090 </v>
    <v>       0.00291545 </v>
    <v>       0.00583090 </v>
    <v>       0.00291545 </v>
    <v>       0.00291545 </v>
    <v>       0.00072886 </v>
    <v>       0.00291545 </v>
    <v>       0.00291545 </v>
    <v>       0.00291545 </v>
    <v>       0.00291545 </v>
    <v>       0.00291545 </v>
    <v>       0.00291545 </v>
    <v>       0.00291545 </v>
    <v>       0.00145773 </v>
    <v>       0.00291545 </v>
    <v>       0.00291545 </v>
    <v>       0.00291545 </v>
    <v>       0.00145773 </v>
    <v>       0.00583090 </v>
    <v>       0.00291545 </v>
    <v>       0.00583090 </v>
    <v>       0.00583090 </v>
    <v>       0.00291545 </v>
    <v>       0.00583090 </v>
    <v>       0.00583090 </v>
    <v>       0.00583090 </v>
    <v>       0.00145773 </v>
    <v>       0.00583090 </v>
    <v>       0.00583090 </v>
    <v>       0.00291545 </v>
    <v>       0.00583090 </v>
    <v>       0.00291545 </v>
    <v>       0.00291545 </v>
    <v>       0.00072886 </v>
    <v>       0.00291545 </v>
    <v>       0.00291545 </v>
    <v>       0.00291545 </v>
    <v>       0.00291545 </v>
    <v>       0.00291545 </v>
    <v>       0.00145773 </v>
    <v>       0.00291545 </v>
    <v>       0.00583090 </v>
    <v>       0.00291545 </v>
    <v>       0.00583090 </v>
    <v>       0.00583090 </v>
    <v>       0.00145773 </v>
    <v>       0.00583090 </v>
    <v>       0.00291545 </v>
    <v>       0.00291545 </v>
    <v>       0.00072886 </v>
    <v>       0.00291545 </v>
    <v>       0.00291545 </v>
    <v>       0.00291545 </v>
    <v>       0.00145773 </v>
    <v>       0.00291545 </v>
    <v>       0.00583090 </v>
    <v>       0.00145773 </v>
    <v>       0.00291545 </v>
    <v>       0.00072886 </v>
    <v>       0.00291545 </v>
    <v>       0.00145773 </v>
    <v>       0.00145773 </v>
    <v>       0.00036443 </v>
   </varray>
  </kpoints>
  <scstep>
   <time name="total">    0.92    0.92</time>
   <energy>
    <i name="e_fr_energy">     -0.14865964 </i>
    <i name="e_wo_entrp">     -0.14865964 </i>
    <i name="e_0_energy">     -0.14865964 </i>
   </energy>
  </scstep>
  <scstep>
   <time name="total">    1.11    1.11</time>
   <energy>
    <i name="e_fr_energy">     -0.14942360 </i>
    <i name="e_wo_entrp">     -0.14942360 </i>
    <i name="e_0_energy">     -0.14942360 </i>
   </energy>
  </scstep>
  <scstep>
   <time name="total">    1.10    1.10</time>
   <energy>
    <i name="e_fr_energy">     -0.12502093 </i>
    <i name="e_wo_entrp">     -0.12502093 </i>
    <i name="e_0_energy">     -0.12502093 </i>
   </energy>
  </scstep>
  <scstep>
   <time name="total">    1.57    1.57</time>
   <energy>
    <i name="e_fr_energy">     -0.12826765 </i>
    <i name="e_wo_entrp">     -0.12826765 </i>
    <i name="e_0_energy">     -0.12826765 </i>
   </energy>
  </scstep>
  <scstep>
   <time name="total">    1.13    1.13</time>
   <energy>
    <i name="e_fr_energy">     -0.13519974 </i>
    <i name="e_wo_entrp">     -0.13519974 </i>
    <i name="e_0_energy">     -0.13519974 </i>
   </energy>
  </scstep>
  <scstep>
   <time name="total">    1.47    1.47</time>
   <energy>
    <i name="e_fr_energy">     -0.13508708 </i>
    <i name="e_wo_entrp">     -0.13508708 </i>
    <i name="e_0_energy">     -0.13508708 </i>
   </energy>
  </scstep>
  <scstep>
   <time name="total">    1.26    1.26</time>
   <energy>
    <i name="e_fr_energy">     -0.13534936 </i>
    <i name="e_wo_entrp">     -0.13534936 </i>
    <i name="e_0_energy">     -0.13534936 </i>
   </energy>
  </scstep>
  <scstep>
   <time name="total">    1.46    1.46</time>
   <energy>
    <i name="e_fr_energy">     -0.13534945 </i>
    <i name="e_wo_entrp">     -0.13534945 </i>
    <i name="e_0_energy">     -0.13534945 </i>
   </energy>
  </scstep>
  <scstep>
   <time name="total">    1.43    1.43</time>
   <energy>
    <i name="e_fr_energy">     -0.13534686 </i>
    <i name="e_wo_entrp">     -0.13534686 </i>
    <i name="e_0_energy">     -0.13534686 </i>
   </energy>
  </scstep>
  <scstep>
   <time name="total">    1.54    1.54</time>
   <energy>
    <i name="e_fr_energy">     -0.13534590 </i>
    <i name="e_wo_entrp">     -0.13534590 </i>
    <i name="e_0_energy">     -0.13534590 </i>
   </energy>
  </scstep>
  <scstep>
   <time name="total">    1.50    1.50</time>
   <energy>
    <i name="e_fr_energy">     -0.13534567 </i>
    <i name="e_wo_entrp">     -0.13534567 </i>
    <i name="e_0_energy">     -0.13534567 </i>
   </energy>
  </scstep>
  <kpoints>
   <generation param="Gamma">
    <v type="int" name="divisions">      14       14       14 </v>
    <v name="usershift">      0.00000000       0.00000000       0.00000000 </v>
    <v name="genvec1">      0.07142857       0.00000000       0.00000000 </v>
    <v name="genvec2">      0.00000000       0.07142857      -0.00000000 </v>
    <v name="genvec3">     -0.00000000      -0.00000000       0.07142857 </v>
    <v name="shift">      0.00000000       0.00000000       0.00000000 </v>
   </generation>
   <varray name="kpointlist" >
    <v>       0.00000000       0.00000000       0.00000000 </v>
    <v>       0.07142857       0.00000000       0.00000000 </v>
    <v>       0.14285714       0.00000000       0.00000000 </v>
    <v>       0.21428571      -0.00000000      -0.00000000 </v>
    <v>       0.28571429      -0.00000000       0.00000000 </v>
    <v>       0.35714286       0.00000000       0.00000000 </v>
    <v>       0.42857143      -0.00000000      -0.00000000 </v>
    <v>       0.50000000      -0.00000000       0.00000000 </v>
    <v>       0.07142857       0.07142857       0.00000000 </v>
    <v>       0.14285714       0.07142857       0.00000000 </v>
    <v>       0.21428571       0.07142857       0.00000000 </v>
    <v>       0.28571429       0.07142857       0.00000000 </v>
    <v>       0.35714286       0.07142857       0.00000000 </v>
    <v>       0.42857143       0.07142857       0.00000000 </v>
    <v>       0.50000000       0.07142857       0.00000000 </v>
    <v>      -0.42857143       0.07142857       0.00000000 </v>
    <v>      -0.35714286       0.07142857      -0.00000000 </v>
    <v>      -0.28571429       0.07142857      -0.00000000 </v>
    <v>      -0.21428571       0.07142857       0.00000000 </v>
    <v>      -0.14285714       0.07142857      -0.00000000 </v>
    <v>      -0.07142857       0.07142857      -0.00000000 </v>
    <v>       0.14285714       0.14285714       0.00000000 </v>
    <v>       0.21428571       0.14285714      -0.00000000 </v>
    <v>       0.28571429       0.14285714       0.00000000 </v>
    <v>       0.35714286       0.14285714       0.00000000 </v>
    <v>       0.42857143       0.14285714       0.00000000 </v>
    <v>       0.50000000       0.14285714       0.00000000 </v>
    <v>      -0.42857143       0.14285714       0.00000000 </v>
    <v>      -0.35714286       0.14285714      -0.00000000 </v>
    <v>      -0.28571429       0.14285714       0.00000000 </v>
    <v>      -0.21428571       0.14285714      -0.00000000 </v>
    <v>      -0.14285714       0.14285714      -0.00000000 </v>
    <v>       0.21428571       0.21428571       0.00000000 </v>
    <v>       0.28571429       0.21428571       0.00000000 </v>
    <v>       0.35714286       0.21428571       0.00000000 </v>
    <v>       0.42857143       0.21428571       0.00000000 </v>
    <v>       0.50000000       0.21428571       0.00000000 </v>
    <v>      -0.42857143       0.21428571      -0.00000000 </v>
    <v>      -0.35714286       0.21428571       0.00000000 </v>
    <v>      -0.28571429       0.21428571       0.00000000 </v>
    <v>      -0.21428571       0.21428571       0.00000000 </v>
    <v>       0.28571429       0.28571429       0.00000000 </v>
    <v>       0.35714286       0.28571429       0.00000000 </v>
    <v>       0.42857143       0.28571429       0.00000000 </v>
    <v>       0.50000000       0.28571429       0.00000000 </v>
    <v>      -0.42857143       0.28571429      -0.00000000 </v>
    <v>      -0.35714286       0.28571429      -0.00000000 </v>
    <v>      -0.28571429       0.28571429       0.00000000 </v>
    <v>       0.35714286       0.35714286       0.00000000 </v>
    <v>       0.42857143       0.35714286       0.00000000 </v>
    <v>       0.50000000       0.35714286       0.00000000 </v>
    <v>      -0.42857143       0.35714286       0.00000000 </v>
    <v>      -0.35714286       0.35714286       0.00000000 </v>
    <v>       0.42857143       0.42857143       0.00000000 </v>
    <v>       0.50000000       0.42857143       0.00000000 </v>
    <v>      -0.42857143       0.42857143       0.00000000 </v>
    <v>       0.50000000       0.50000000       0.00000000 </v>
    <v>       0.00000000       0.07142857       0.07142857 </v>
    <v>       0.14285714       0.07142857       0.07142857 </v>
    <v>       0.21428571       0.07142857       0.07142857 </v>
    <v>       0.28571429       0.07142857       0.07142857 </v>
    <v>       0.35714286       0.07142857       0.07142857 </v>
    <v>       0.42857143       0.07142857       0.07142857 </v>
    <v>       0.50000000       0.07142857       0.07142857 </v>
    <v>      -0.42857143       0.07142857       0.07142857 </v>
    <v>      -0.35714286       0.07142857       0.07142857 </v>
    <v>      -0.28571429       0.07142857       0.07142857 </v>
    <v>      -0.21428571       0.07142857       0.07142857 </v>
    <v>      -0.14285714       0.07142857       0.07142857 </v>
    <v>      -0.07142857       0.07142857       0.07142857 </v>
    <v>       0.21428571       0.14285714       0.07142857 </v>
    <v>       0.28571429       0.14285714       0.07142857 </v>
    <v>       0.35714286       0.14285714       0.07142857 </v>
    <v>       0.42857143       0.14285714       0.07142857 </v>
    <v>       0.50000000       0.14285714       0.07142857 </v>
    <v>      -0.42857143       0.14285714       0.07142857 </v>
    <v>      -0.35714286       0.14285714       0.07142857 </v>
    <v>      -0.28571429       0.14285714       0.07142857 </v>
    <v>      -0.21428571       0.14285714       0.07142857 </v>
    <v>      -0.14285714       0.14285714       0.07142857 </v>
    <v>      -0.07142857       0.14285714       0.07142857 </v>
    <v>       0.14285714       0.21428571       0.07142857 </v>
    <v>       0.28571429       0.21428571       0.07142857 </v>
    <v>       0.35714286       0.21428571       0.07142857 </v>
    <v>       0.42857143       0.21428571       0.07142857 </v>
    <v>       0.50000000       0.21428571       0.07142857 </v>
    <v>      -0.42857143       0.21428571       0.07142857 </v>
    <v>      -0.35714286       0.21428571       0.07142857 </v>
    <v>      -0.28571429       0.21428571       0.07142857 </v>
    <v>      -0.21428571       0.21428571       0.07142857 </v>
    <v>      -0.14285714       0.21428571       0.07142857 </v>
    <v>       0.14285714       0.28571429       0.07142857 </v>
    <v>       0.21428571       0.28571429       0.07142857 </v>
    <v>       0.35714286       0.28571429       0.07142857 </v>
    <v>       0.42857143       0.28571429       0.07142857 </v>
    <v>       0.50000000       0.28571429       0.07142857 </v>
    <v>      -0.42857143       0.28571429       0.07142857 </v>
    <v>      -0.35714286       0.28571429       0.07142857 </v>
    <v>      -0.28571429       0.28571429       0.07142857 </v>
    <v>      -0.21428571       0.28571429       0.07142857 </v>
    <v>       0.14285714       0.35714286       0.07142857 </v>
    <v>       0.21428571       0.35714286       0.07142857 </v>
    <v>       0.28571429       0.35714286       0.07142857 </v>
    <v>       0.42857143       0.35714286       0.07142857 </v>
    <v>       0.50000000       0.35714286       0.07142857 </v>
    <v>      -0.42857143       0.35714286       0.07142857 </v>
    <v>      -0.35714286       0.35714286       0.07142857 </v>
    <v>      -0.28571429       0.35714286       0.07142857 </v>
    <v>       0.14285714       0.42857143       0.07142857 </v>
    <v>       0.21428571       0.42857143       0.07142857 </v>
    <v>       0.28571429       0.42857143       0.07142857 </v>
    <v>       0.35714286       0.42857143       0.07142857 </v>
    <v>       0.50000000       0.42857143       0.07142857 </v>
    <v>      -0.42857143       0.42857143       0.07142857 </v>
    <v>      -0.35714286       0.42857143       0.07142857 </v>
    <v>       0.14285714       0.50000000       0.07142857 </v>
    <v>       0.21428571       0.50000000       0.07142857 </v>
    <v>       0.28571429       0.50000000       0.07142857 </v>
    <v>       0.35714286       0.50000000       0.07142857 </v>
    <v>       0.42857143       0.50000000       0.07142857 </v>
    <v>      -0.42857143       0.50000000       0.07142857 </v>
    <v>       0.14285714      -0.42857143       0.07142857 </v>
    <v>       0.21428571      -0.42857143       0.07142857 </v>
    <v>       0.28571429      -0.42857143       0.07142857 </v>
    <v>       0.35714286      -0.42857143       0.07142857 </v>
    <v>       0.42857143      -0.42857143       0.07142857 </v>
    <v>       0.50000000      -0.42857143       0.07142857 </v>
    <v>       0.21428571      -0.35714286       0.07142857 </v>
    <v>       0.28571429      -0.35714286       0.07142857 </v>
    <v>       0.35714286      -0.35714286       0.07142857 </v>
    <v>       0.42857143      -0.35714286       0.07142857 </v>
    <v>       0.21428571      -0.28571429       0.07142857 </v>
    <v>       0.28571429      -0.28571429       0.07142857 </v>
    <v>       0.35714286      -0.28571429       0.07142857 </v>
    <v>       0.21428571      -0.21428571       0.07142857 </v>
    <v>       0.28571429      -0.21428571       0.07142857 </v>
    <v>       0.21428571      -0.14285714       0.07142857 </v>
    <v>       0.00000000       0.14285714       0.14285714 </v>
    <v>       0.28571429       0.14285714       0.14285714 </v>
    <v>       0.35714286       0.14285714       0.14285714 </v>
    <v>       0.42857143       0.14285714       0.14285714 </v>
    <v>       0.50000000       0.14285714       0.14285714 </v>
    <v>      -0.42857143       0.14285714       0.14285714 </v>
    <v>      -0.35714286       0.14285714       0.14285714 </v>
    <v>      -0.28571429       0.14285714       0.14285714 </v>
    <v>      -0.21428571       0.14285714       0.14285714 </v>
    <v>      -0.14285714       0.14285714       0.14285714 </v>
    <v>      -0.07142857       0.14285714       0.14285714 </v>
    <v>       0.35714286       0.21428571       0.14285714 </v>
    <v>       0.42857143       0.21428571       0.14285714 </v>
    <v>       0.50000000       0.21428571       0.14285714 </v>
    <v>      -0.42857143       0.21428571       0.14285714 </v>
    <v>      -0.35714286       0.21428571       0.14285714 </v>
    <v>      -0.28571429       0.21428571       0.14285714 </v>
    <v>      -0.21428571       0.21428571       0.14285714 </v>
    <v>      -0.14285714       0.21428571       0.14285714 </v>
    <v>      -0.07142857       0.21428571       0.14285714 </v>
    <v>       0.42857143       0.28571429       0.14285714 </v>
    <v>       0.50000000       0.28571429       0.14285714 </v>
    <v>      -0.42857143       0.28571429       0.14285714 </v>
    <v>      -0.35714286       0.28571429       0.14285714 </v>
    <v>      -0.28571429       0.28571429       0.14285714 </v>
    <v>      -0.21428571       0.28571429       0.14285714 </v>
    <v>      -0.14285714       0.28571429       0.14285714 </v>
    <v>       0.50000000       0.35714286       0.14285714 </v>
    <v>      -0.42857143       0.35714286       0.14285714 </v>
    <v>      -0.35714286       0.35714286       0.14285714 </v>
    <v>      -0.28571429       0.35714286       0.14285714 </v>
    <v>      -0.21428571       0.35714286       0.14285714 </v>
    <v>       0.28571429       0.42857143       0.14285714 </v>
    <v>      -0.42857143       0.42857143       0.14285714 </v>
    <v>      -0.35714286       0.42857143       0.14285714 </v>
    <v>      -0.28571429       0.42857143       0.14285714 </v>
    <v>       0.28571429       0.50000000       0.14285714 </v>
    <v>       0.35714286       0.50000000       0.14285714 </v>
    <v>      -0.35714286       0.50000000       0.14285714 </v>
    <v>       0.28571429      -0.42857143       0.14285714 </v>
    <v>       0.35714286      -0.42857143       0.14285714 </v>
    <v>       0.42857143      -0.42857143       0.14285714 </v>
    <v>       0.28571429      -0.35714286       0.14285714 </v>
    <v>       0.35714286      -0.35714286       0.14285714 </v>
    <v>       0.42857143      -0.35714286       0.14285714 </v>
    <v>       0.50000000      -0.35714286       0.14285714 </v>
    <v>       0.35714286      -0.28571429       0.14285714 </v>
    <v>       0.42857143      -0.28571429       0.14285714 </v>
    <v>       0.35714286      -0.21428571       0.14285714 </v>
    <v>       0.00000000       0.21428571       0.21428571 </v>
    <v>       0.42857143       0.21428571       0.21428571 </v>
    <v>       0.50000000       0.21428571       0.21428571 </v>
    <v>      -0.42857143       0.21428571       0.21428571 </v>
    <v>      -0.35714286       0.21428571       0.21428571 </v>
    <v>      -0.28571429       0.21428571       0.21428571 </v>
    <v>      -0.21428571       0.21428571       0.21428571 </v>
    <v>      -0.14285714       0.21428571       0.21428571 </v>
    <v>      -0.07142857       0.21428571       0.21428571 </v>
    <v>       0.50000000       0.28571429       0.21428571 </v>
    <v>      -0.42857143       0.28571429       0.21428571 </v>
    <v>      -0.35714286       0.28571429       0.21428571 </v>
    <v>      -0.28571429       0.28571429       0.21428571 </v>
    <v>      -0.21428571       0.28571429       0.21428571 </v>
    <v>      -0.14285714       0.28571429       0.21428571 </v>
    <v>      -0.07142857       0.28571429       0.21428571 </v>
    <v>      -0.42857143       0.35714286       0.21428571 </v>
    <v>      -0.35714286       0.35714286       0.21428571 </v>
    <v>      -0.28571429       0.35714286       0.21428571 </v>
    <v>      -0.21428571       0.35714286       0.21428571 </v>
    <v>      -0.14285714       0.35714286       0.21428571 </v>
    <v>      -0.35714286       0.42857143       0.21428571 </v>
    <v>      -0.28571429       0.42857143       0.21428571 </v>
    <v>      -0.21428571       0.42857143       0.21428571 </v>
    <v>      -0.28571429       0.50000000       0.21428571 </v>
    <v>       0.42857143      -0.35714286       0.21428571 </v>
    <v>       0.42857143      -0.28571429       0.21428571 </v>
    <v>       0.50000000      -0.28571429       0.21428571 </v>
    <v>       0.00000000       0.28571429       0.28571429 </v>
    <v>      -0.42857143       0.28571429       0.28571429 </v>
    <v>      -0.35714286       0.28571429       0.28571429 </v>
    <v>      -0.28571429       0.28571429       0.28571429 </v>
    <v>      -0.21428571       0.28571429       0.28571429 </v>
    <v>      -0.14285714       0.28571429       0.28571429 </v>
    <v>      -0.07142857       0.28571429       0.28571429 </v>
    <v>      -0.35714286       0.35714286       0.28571429 </v>
    <v>      -0.28571429       0.35714286       0.28571429 </v>
    <v>      -0.21428571       0.35714286       0.28571429 </v>
    <v>      -0.14285714       0.35714286       0.28571429 </v>
    <v>      -0.07142857       0.35714286       0.28571429 </v>
    <v>      -0.28571429       0.42857143       0.28571429 </v>
    <v>      -0.21428571       0.42857143       0.28571429 </v>
    <v>      -0.14285714       0.42857143       0.28571429 </v>
    <v>      -0.21428571       0.50000000       0.28571429 </v>
    <v>       0.00000000       0.35714286       0.35714286 </v>
    <v>      -0.28571429       0.35714286       0.35714286 </v>
    <v>      -0.21428571       0.35714286       0.35714286 </v>
    <v>      -0.14285714       0.35714286       0.35714286 </v>
    <v>      -0.07142857       0.35714286       0.35714286 </v>
    <v>      -0.21428571       0.42857143       0.35714286 </v>
    <v>      -0.14285714       0.42857143       0.35714286 </v>
    <v>      -0.07142857       0.42857143       0.35714286 </v>
    <v>      -0.14285714       0.50000000       0.35714286 </v>
    <v>       0.00000000       0.42857143       0.42857143 </v>
    <v>      -0.14285714       0.42857143       0.42857143 </v>
    <v>      -0.07142857       0.42857143       0.42857143 </v>
    <v>      -0.07142857       0.50000000       0.42857143 </v>
    <v>       0.00000000       0.50000000       0.50000000 </v>
   </varray>
   <varray name="weights" >
    <v>       0.00036443 </v>
    <v>       0.00291545 </v>
    <v>       0.00291545 </v>
    <v>       0.00291545 </v>
    <v>       0.00291545 </v>
    <v>       0.00291545 </v>
    <v>       0.00291545 </v>
    <v>       0.00145773 </v>
    <v>       0.00145773 </v>
    <v>       0.00583090 </v>
    <v>       0.00583090 </v>
    <v>       0.00583090 </v>
    <v>       0.00583090 </v>
    <v>       0.00583090 </v>
    <v>       0.00583090 </v>
    <v>       0.00583090 </v>
    <v>       0.00583090 </v>
    <v>       0.00583090 </v>
    <v>       0.00583090 </v>
    <v>       0.00583090 </v>
    <v>       0.00291545 </v>
    <v>       0.00145773 </v>
    <v>       0.00583090 </v>
    <v>       0.00583090 </v>
    <v>       0.00583090 </v>
    <v>       0.00583090 </v>
    <v>       0.00583090 </v>
    <v>       0.00583090 </v>
    <v>       0.00583090 </v>
    <v>       0.00583090 </v>
    <v>       0.00583090 </v>
    <v>       0.00291545 </v>
    <v>       0.00145773 </v>
    <v>       0.00583090 </v>
    <v>       0.00583090 </v>
    <v>       0.00583090 </v>
    <v>       0.00583090 </v>
    <v>       0.00583090 </v>
    <v>       0.00583090 </v>
    <v>       0.00583090 </v>
    <v>       0.00291545 </v>
    <v>       0.00145773 </v>
    <v>       0.00583090 </v>
    <v>       0.00583090 </v>
    <v>       0.00583090 </v>
    <v>       0.00583090 </v>
    <v>       0.00583090 </v>
    <v>       0.00291545 </v>
    <v>       0.00145773 </v>
    <v>       0.00583090 </v>
    <v>       0.00583090 </v>
    <v>       0.00583090 </v>
    <v>       0.00291545 </v>
    <v>       0.00145773 </v>
    <v>       0.00583090 </v>
    <v>       0.00291545 </v>
    <v>       0.00072886 </v>
    <v>       0.00072886 </v>
    <v>       0.00145773 </v>
    <v>       0.00291545 </v>
    <v>       0.00291545 </v>
    <v>       0.00291545 </v>
    <v>       0.00291545 </v>
    <v>       0.00291545 </v>
    <v>       0.00291545 </v>
    <v>       0.00291545 </v>
    <v>       0.00291545 </v>
    <v>       0.00291545 </v>
    <v>       0.00291545 </v>
    <v>       0.00291545 </v>
    <v>       0.00291545 </v>
    <v>       0.00583090 </v>
    <v>       0.00583090 </v>
    <v>       0.00583090 </v>
    <v>       0.00583090 </v>
    <v>       0.00583090 </v>
    <v>       0.00583090 </v>
    <v>       0.00583090 </v>
    <v>       0.00583090 </v>
    <v>       0.00583090 </v>
    <v>       0.00291545 </v>
    <v>       0.00291545 </v>
    <v>       0.00291545 </v>
    <v>       0.00583090 </v>
    <v>       0.00583090 </v>
    <v>       0.00583090 </v>
    <v>       0.00583090 </v>
    <v>       0.00583090 </v>
    <v>       0.00583090 </v>
    <v>       0.00583090 </v>
    <v>       0.00291545 </v>
    <v>       0.00583090 </v>
    <v>       0.00291545 </v>
    <v>       0.00291545 </v>
    <v>       0.00583090 </v>
    <v>       0.00583090 </v>
    <v>       0.00583090 </v>
    <v>       0.00583090 </v>
    <v>       0.00583090 </v>
    <v>       0.00291545 </v>
    <v>       0.00583090 </v>
    <v>       0.00583090 </v>
    <v>       0.00291545 </v>
[...]
      <set comment="kpoint 93">
       <r>  -19.3453    1.0000 </r>
       <r>   -6.0182    1.0000 </r>
       <r>   -5.5334    1.0000 </r>
       <r>   -5.3594    1.0000 </r>
       <r>    5.0921    0.0000 </r>
       <r>    6.4338    0.0000 </r>
       <r>    7.1253    0.0000 </r>
       <r>    9.8090    0.0000 </r>
      </set>
      <set comment="kpoint 94">
       <r>  -19.3313    1.0000 </r>
       <r>   -6.0246    1.0000 </r>
       <r>   -5.6361    1.0000 </r>
       <r>   -5.3960    1.0000 </r>
       <r>    5.3979    0.0000 </r>
       <r>    6.4745    0.0000 </r>
       <r>    7.0799    0.0000 </r>
       <r>    9.5044    0.0000 </r>
      </set>
      <set comment="kpoint 95">
       <r>  -19.3248    1.0000 </r>
       <r>   -5.9970    1.0000 </r>
       <r>   -5.7262    1.0000 </r>
       <r>   -5.4046    1.0000 </r>
       <r>    5.6571    0.0000 </r>
       <r>    6.3760    0.0000 </r>
       <r>    7.2439    0.0000 </r>
       <r>    9.1475    0.0000 </r>
      </set>
      <set comment="kpoint 96">
       <r>  -19.3271    1.0000 </r>
       <r>   -5.9722    1.0000 </r>
       <r>   -5.7561    1.0000 </r>
       <r>   -5.3799    1.0000 </r>
       <r>    5.8188    0.0000 </r>
       <r>    6.3195    0.0000 </r>
       <r>    7.1255    0.0000 </r>
       <r>    9.1339    0.0000 </r>
      </set>
      <set comment="kpoint 97">
       <r>  -19.3378    1.0000 </r>
       <r>   -5.9922    1.0000 </r>
       <r>   -5.6751    1.0000 </r>
       <r>   -5.3330    1.0000 </r>
       <r>    5.6433    0.0000 </r>
       <r>    6.5211    0.0000 </r>
       <r>    6.8321    0.0000 </r>
       <r>    9.3343    0.0000 </r>
      </set>
      <set comment="kpoint 98">
       <r>  -19.3238    1.0000 </r>
       <r>   -6.0602    1.0000 </r>
       <r>   -5.5977    1.0000 </r>
       <r>   -5.4576    1.0000 </r>
       <r>    5.0817    0.0000 </r>
       <r>    6.2598    0.0000 </r>
       <r>    7.5830    0.0000 </r>
       <r>    9.8366    0.0000 </r>
      </set>
      <set comment="kpoint 99">
       <r>  -19.3183    1.0000 </r>
       <r>   -6.0041    1.0000 </r>
       <r>   -5.7084    1.0000 </r>
       <r>   -5.4701    1.0000 </r>
       <r>    5.3108    0.0000 </r>
       <r>    6.4347    0.0000 </r>
       <r>    7.5331    0.0000 </r>
       <r>    9.2265    0.0000 </r>
      </set>
      <set comment="kpoint 100">
       <r>  -19.3195    1.0000 </r>
       <r>   -5.9048    1.0000 </r>
       <r>   -5.8389    1.0000 </r>
       <r>   -5.4378    1.0000 </r>
       <r>    5.5759    0.0000 </r>
       <r>    6.5282    0.0000 </r>
       <r>    7.3222    0.0000 </r>
       <r>    8.9669    0.0000 </r>
      </set>
      <set comment="kpoint 101">
       <r>  -19.3161    1.0000 </r>
       <r>   -6.0702    1.0000 </r>
       <r>   -5.6204    1.0000 </r>
       <r>   -5.4965    1.0000 </r>
       <r>    5.0266    0.0000 </r>
       <r>    6.1999    0.0000 </r>
       <r>    7.9467    0.0000 </r>
       <r>    9.6418    0.0000 </r>
      </set>
      <set comment="kpoint 102">
       <r>  -19.3217    1.0000 </r>
       <r>   -5.9599    1.0000 </r>
       <r>   -5.7473    1.0000 </r>
       <r>   -5.4531    1.0000 </r>
       <r>    5.5601    0.0000 </r>
       <r>    6.7520    0.0000 </r>
       <r>    6.9507    0.0000 </r>
       <r>    9.0512    0.0000 </r>
      </set>
      <set comment="kpoint 103">
       <r>  -19.3182    1.0000 </r>
       <r>   -5.8958    1.0000 </r>
       <r>   -5.8242    1.0000 </r>
       <r>   -5.4778    1.0000 </r>
       <r>    5.6072    0.0000 </r>
       <r>    6.8037    0.0000 </r>
       <r>    7.0709    0.0000 </r>
       <r>    8.7365    0.0000 </r>
      </set>
      <set comment="kpoint 104">
       <r>  -19.3159    1.0000 </r>
       <r>   -5.9329    1.0000 </r>
       <r>   -5.7727    1.0000 </r>
       <r>   -5.5113    1.0000 </r>
       <r>    5.4681    0.0000 </r>
       <r>    6.7219    0.0000 </r>
       <r>    7.3385    0.0000 </r>
       <r>    8.6885    0.0000 </r>
      </set>
     </set>
    </set>
   </array>
  </eigenvalues>
  <separator name="orbital magnetization" >
   <v name="MAGDIPOLOUT">      0.00000000      0.00000000      0.00000000</v>
  </separator>
  <dos>
   <i name="efermi">     -4.99321779 </i>
   <total>
    <array>
     <dimension dim="1">gridpoints</dimension>
     <dimension dim="2">spin</dimension>
     <field>energy</field>
     <field>total</field>
     <field>integrated</field>
     <set>
      <set comment="spin 1">
       <r>   -21.0934     0.0000     0.0000 </r>
       <r>   -20.9770     0.0000     0.0000 </r>
       <r>   -20.8605     0.0000     0.0000 </r>
       <r>   -20.7440     0.0000     0.0000 </r>
       <r>   -20.6276     0.0000     0.0000 </r>
       <r>   -20.5111     0.0000     0.0000 </r>
       <r>   -20.3947     0.0000     0.0000 </r>
       <r>   -20.2782     0.0000     0.0000 </r>
       <r>   -20.1618     0.0000     0.0000 </r>
       <r>   -20.0453     0.0000     0.0000 </r>
       <r>   -19.9288     0.0000     0.0000 </r>
       <r>   -19.8124     0.0000     0.0000 </r>
       <r>   -19.6959     0.0000     0.0000 </r>
       <r>   -19.5795     0.0000     0.0000 </r>
       <r>   -19.4630     0.5927     0.0690 </r>
       <r>   -19.3466     7.9835     1.1360 </r>
       <r>   -19.2301     0.0000     2.0000 </r>
       <r>   -19.1136     0.0000     2.0000 </r>
       <r>   -18.9972     0.0000     2.0000 </r>
       <r>   -18.8807     0.0000     2.0000 </r>
       <r>   -18.7643     0.0000     2.0000 </r>
       <r>   -18.6478     0.0000     2.0000 </r>
       <r>   -18.5314     0.0000     2.0000 </r>
       <r>   -18.4149     0.0000     2.0000 </r>
       <r>   -18.2984     0.0000     2.0000 </r>
       <r>   -18.1820     0.0000     2.0000 </r>
       <r>   -18.0655     0.0000     2.0000 </r>
       <r>   -17.9491     0.0000     2.0000 </r>
       <r>   -17.8326     0.0000     2.0000 </r>
       <r>   -17.7162     0.0000     2.0000 </r>
       <r>   -17.5997     0.0000     2.0000 </r>
       <r>   -17.4832     0.0000     2.0000 </r>
       <r>   -17.3668     0.0000     2.0000 </r>
       <r>   -17.2503     0.0000     2.0000 </r>
       <r>   -17.1339     0.0000     2.0000 </r>
       <r>   -17.0174     0.0000     2.0000 </r>
       <r>   -16.9010     0.0000     2.0000 </r>
       <r>   -16.7845     0.0000     2.0000 </r>
       <r>   -16.6680     0.0000     2.0000 </r>
       <r>   -16.5516     0.0000     2.0000 </r>
       <r>   -16.4351     0.0000     2.0000 </r>
       <r>   -16.3187     0.0000     2.0000 </r>
       <r>   -16.2022     0.0000     2.0000 </r>
       <r>   -16.0858     0.0000     2.0000 </r>
       <r>   -15.9693     0.0000     2.0000 </r>
       <r>   -15.8528     0.0000     2.0000 </r>
       <r>   -15.7364     0.0000     2.0000 </r>
       <r>   -15.6199     0.0000     2.0000 </r>
       <r>   -15.5035     0.0000     2.0000 </r>
       <r>   -15.3870     0.0000     2.0000 </r>
       <r>   -15.2706     0.0000     2.0000 </r>
       <r>   -15.1541     0.0000     2.0000 </r>
       <r>   -15.0376     0.0000     2.0000 </r>
       <r>   -14.9212     0.0000     2.0000 </r>
       <r>   -14.8047     0.0000     2.0000 </r>
       <r>   -14.6883     0.0000     2.0000 </r>
       <r>   -14.5718     0.0000     2.0000 </r>
       <r>   -14.4554     0.0000     2.0000 </r>
       <r>   -14.3389     0.0000     2.0000 </r>
       <r>   -14.2224     0.0000     2.0000 </r>
       <r>   -14.1060     0.0000     2.0000 </r>
       <r>   -13.9895     0.0000     2.0000 </r>
       <r>   -13.8731     0.0000     2.0000 </r>
       <r>   -13.7566     0.0000     2.0000 </r>
       <r>   -13.6402     0.0000     2.0000 </r>
       <r>   -13.5237     0.0000     2.0000 </r>
       <r>   -13.4072     0.0000     2.0000 </r>
       <r>   -13.2908     0.0000     2.0000 </r>
       <r>   -13.1743     0.0000     2.0000 </r>
       <r>   -13.0579     0.0000     2.0000 </r>
       <r>   -12.9414     0.0000     2.0000 </r>
       <r>   -12.8250     0.0000     2.0000 </r>
       <r>   -12.7085     0.0000     2.0000 </r>
       <r>   -12.5920     0.0000     2.0000 </r>
       <r>   -12.4756     0.0000     2.0000 </r>
       <r>   -12.3591     0.0000     2.0000 </r>
       <r>   -12.2427     0.0000     2.0000 </r>
       <r>   -12.1262     0.0000     2.0000 </r>
       <r>   -12.0098     0.0000     2.0000 </r>
       <r>   -11.8933     0.0000     2.0000 </r>
       <r>   -11.7768     0.0000     2.0000 </r>
       <r>   -11.6604     0.0000     2.0000 </r>
       <r>   -11.5439     0.0000     2.0000 </r>
       <r>   -11.4275     0.0000     2.0000 </r>
       <r>   -11.3110     0.0000     2.0000 </r>
       <r>   -11.1946     0.0000     2.0000 </r>
       <r>   -11.0781     0.0000     2.0000 </r>
       <r>   -10.9616     0.0000     2.0000 </r>
       <r>   -10.8452     0.0000     2.0000 </r>
       <r>   -10.7287     0.0000     2.0000 </r>
       <r>   -10.6123     0.0000     2.0000 </r>
       <r>   -10.4958     0.0000     2.0000 </r>
       <r>   -10.3794     0.0000     2.0000 </r>
       <r>   -10.2629     0.0000     2.0000 </r>
       <r>   -10.1464     0.0000     2.0000 </r>
       <r>   -10.0300     0.0000     2.0000 </r>
       <r>    -9.9135     0.0000     2.0000 </r>
       <r>    -9.7971     0.0000     2.0000 </r>
       <r>    -9.6806     0.0000     2.0000 </r>
       <r>    -9.5642     0.0000     2.0000 </r>
       <r>    -9.4477     0.0000     2.0000 </r>
       <r>    -9.3312     0.0000     2.0000 </r>
       <r>    -9.2148     0.0000     2.0000 </r>
       <r>    -9.0983     0.0000     2.0000 </r>
       <r>    -8.9819     0.0000     2.0000 </r>
       <r>    -8.8654     0.0000     2.0000 </r>
       <r>    -8.7490     0.0000     2.0000 </r>
       <r>    -8.6325     0.0000     2.0000 </r>
       <r>    -8.5160     0.0000     2.0000 </r>
       <r>    -8.3996     0.0000     2.0000 </r>
       <r>    -8.2831     0.0000     2.0000 </r>
       <r>    -8.1667     0.0000     2.0000 </r>
       <r>    -8.0502     0.0000     2.0000 </r>
       <r>    -7.9338     0.0000     2.0000 </r>
       <r>    -7.8173     0.0000     2.0000 </r>
       <r>    -7.7008     0.0000     2.0000 </r>
       <r>    -7.5844     0.0000     2.0000 </r>
       <r>    -7.4679     0.0000     2.0000 </r>
       <r>    -7.3515     0.0000     2.0000 </r>
       <r>    -7.2350     0.0000     2.0000 </r>
       <r>    -7.1186     0.0000     2.0000 </r>
       <r>    -7.0021     0.0000     2.0000 </r>
       <r>    -6.8856     0.0000     2.0000 </r>
       <r>    -6.7692     0.0000     2.0000 </r>
       <r>    -6.6527     0.0000     2.0000 </r>
       <r>    -6.5363     0.0000     2.0000 </r>
       <r>    -6.4198     0.0000     2.0000 </r>
       <r>    -6.3034     0.0142     2.0017 </r>
       <r>    -6.1869     1.0906     2.1474 </r>
       <r>    -6.0704     3.0302     2.6043 </r>
       <r>    -5.9540     4.3665     3.4130 </r>
       <r>    -5.8375     1.1681     3.6834 </r>
       <r>    -5.7211     1.7692     3.9910 </r>
       <r>    -5.6046     2.2233     4.3763 </r>
       <r>    -5.4882     2.5667     4.8375 </r>
       <r>    -5.3717     5.3128     5.7565 </r>
       <r>    -5.2552     6.2313     6.7293 </r>
       <r>    -5.1388     5.6364     7.6848 </r>
       <r>    -5.0223     1.2705     8.0000 </r>
       <r>    -4.9059     0.0000     8.0000 </r>
       <r>    -4.7894     0.0000     8.0000 </r>
       <r>    -4.6730     0.0000     8.0000 </r>
       <r>    -4.5565     0.0000     8.0000 </r>
       <r>    -4.4400     0.0000     8.0000 </r>
       <r>    -4.3236     0.0000     8.0000 </r>
       <r>    -4.2071     0.0000     8.0000 </r>
       <r>    -4.0907     0.0000     8.0000 </r>
       <r>    -3.9742     0.0000     8.0000 </r>
       <r>    -3.8578     0.0000     8.0000 </r>
       <r>    -3.7413     0.0000     8.0000 </r>
       <r>    -3.6248     0.0000     8.0000 </r>
       <r>    -3.5084     0.0000     8.0000 </r>
       <r>    -3.3919     0.0000     8.0000 </r>
       <r>    -3.2755     0.0000     8.0000 </r>
       <r>    -3.1590     0.0000     8.0000 </r>
       <r>    -3.0426     0.0000     8.0000 </r>
       <r>    -2.9261     0.0000     8.0000 </r>
       <r>    -2.8096     0.0000     8.0000 </r>
       <r>    -2.6932     0.0000     8.0000 </r>
       <r>    -2.5767     0.0000     8.0000 </r>
       <r>    -2.4603     0.0000     8.0000 </r>
       <r>    -2.3438     0.0000     8.0000 </r>
       <r>    -2.2274     0.0000     8.0000 </r>
       <r>    -2.1109     0.0000     8.0000 </r>
       <r>    -1.9944     0.0000     8.0000 </r>
       <r>    -1.8780     0.0000     8.0000 </r>
       <r>    -1.7615     0.0000     8.0000 </r>
       <r>    -1.6451     0.0000     8.0000 </r>
       <r>    -1.5286     0.0000     8.0000 </r>
       <r>    -1.4122     0.0000     8.0000 </r>
       <r>    -1.2957     0.0000     8.0000 </r>
       <r>    -1.1792     0.0000     8.0000 </r>
       <r>    -1.0628     0.0000     8.0000 </r>
       <r>    -0.9463     0.0000     8.0000 </r>
       <r>    -0.8299     0.0000     8.0000 </r>
       <r>    -0.7134     0.0000     8.0000 </r>
       <r>    -0.5970     0.0000     8.0000 </r>
       <r>    -0.4805     0.0000     8.0000 </r>
       <r>    -0.3640     0.0000     8.0000 </r>
       <r>    -0.2476     0.0000     8.0000 </r>
       <r>    -0.1311     0.0000     8.0000 </r>
       <r>    -0.0147     0.0000     8.0000 </r>
       <r>     0.1018     0.0000     8.0000 </r>
       <r>     0.2182     0.0000     8.0000 </r>
       <r>     0.3347     0.0000     8.0000 </r>
       <r>     0.4512     0.0000     8.0000 </r>
       <r>     0.5676     0.0000     8.0000 </r>
       <r>     0.6841     0.0000     8.0000 </r>
       <r>     0.8005     0.0000     8.0000 </r>
       <r>     0.9170     0.0000     8.0000 </r>
       <r>     1.0334     0.0000     8.0000 </r>
       <r>     1.1499     0.0000     8.0000 </r>
       <r>     1.2664     0.0000     8.0000 </r>
       <r>     1.3828     0.0000     8.0000 </r>
       <r>     1.4993     0.0000     8.0000 </r>
       <r>     1.6157     0.0000     8.0000 </r>
       <r>     1.7322     0.0000     8.0000 </r>
       <r>     1.8486     0.0000     8.0000 </r>
       <r>     1.9651     0.0000     8.0000 </r>
       <r>     2.0816     0.0000     8.0000 </r>
       <r>     2.1980     0.0063     8.0007 </r>
       <r>     2.3145     0.0245     8.0036 </r>
       <r>     2.4309     0.0376     8.0109 </r>
       <r>     2.5474     0.0718     8.0193 </r>
       <r>     2.6638     0.0868     8.0298 </r>
       <r>     2.7803     0.0000     8.0430 </r>
       <r>     2.8968     0.0376     8.0474 </r>
       <r>     3.0132     0.1879     8.0693 </r>
       <r>     3.1297     0.0002     8.0824 </r>
       <r>     3.2461     0.0476     8.1054 </r>
       <r>     3.3626     0.0000     8.1232 </r>
       <r>     3.4790     0.0751     8.1319 </r>
       <r>     3.5955     0.4882     8.1888 </r>
       <r>     3.7120     0.1823     8.2100 </r>
       <r>     3.8284     0.2003     8.2471 </r>
       <r>     3.9449     0.0000     8.2471 </r>
       <r>     4.0613     0.2846     8.2977 </r>
       <r>     4.1778     0.0000     8.3520 </r>
       <r>     4.2942     0.2378     8.4147 </r>
       <r>     4.4107     0.3004     8.4497 </r>
       <r>     4.5272     0.5623     8.5152 </r>
       <r>     4.6436     0.9268     8.6794 </r>
       <r>     4.7601     1.1525     8.8485 </r>
       <r>     4.8765     0.9096     8.9689 </r>
       <r>     4.9930     0.2821     9.0708 </r>
       <r>     5.1094     1.1855     9.2197 </r>
       <r>     5.2259     0.7544     9.3969 </r>
       <r>     5.3424     0.8892     9.5175 </r>
       <r>     5.4588     0.5397     9.5818 </r>
       <r>     5.5753     0.5275     9.7203 </r>
       <r>     5.6917     0.7621     9.8701 </r>
       <r>     5.8082     0.3992     9.9240 </r>
       <r>     5.9246     0.2762    10.0387 </r>
       <r>     6.0411     0.5325    10.1211 </r>
       <r>     6.1576     0.7120    10.2338 </r>
       <r>     6.2740     1.6686    10.4851 </r>
       <r>     6.3905     1.6624    10.7643 </r>
       <r>     6.5069     1.5884    10.9743 </r>
       <r>     6.6234     0.4435    11.1078 </r>
       <r>     6.7398     1.2751    11.2746 </r>
       <r>     6.8563     1.3640    11.4861 </r>
       <r>     6.9728     0.7528    11.6073 </r>
       <r>     7.0892     1.0787    11.9033 </r>
       <r>     7.2057     0.8006    12.0692 </r>
       <r>     7.3221     1.2775    12.2880 </r>
       <r>     7.4386     1.8836    12.6035 </r>
       <r>     7.5550     1.3041    12.8130 </r>
       <r>     7.6715     1.1918    13.0973 </r>
       <r>     7.7880     0.3652    13.1890 </r>
       <r>     7.9044     1.0678    13.4020 </r>
       <r>     8.0209     0.6756    13.5196 </r>
       <r>     8.1373     1.0554    13.6513 </r>
       <r>     8.2538     0.4391    13.7253 </r>
       <r>     8.3702     0.3152    13.8232 </r>
       <r>     8.4867     0.5261    13.9527 </r>
       <r>     8.6032     0.8732    14.1068 </r>
       <r>     8.7196     1.1388    14.2616 </r>
       <r>     8.8361     0.8951    14.4752 </r>
       <r>     8.9525     1.2108    14.6519 </r>
       <r>     9.0690     0.7804    14.8205 </r>
       <r>     9.1854     2.2227    15.1546 </r>
       <r>     9.3019     0.4275    15.2079 </r>
       <r>     9.4184     0.9355    15.4071 </r>
       <r>     9.5348     1.0048    15.5244 </r>
       <r>     9.6513     0.2184    15.5903 </r>
       <r>     9.7677     0.1102    15.6039 </r>
       <r>     9.8842     0.9763    15.7573 </r>
       <r>    10.0006     0.0376    15.7617 </r>
       <r>    10.1171     0.1502    15.7792 </r>
       <r>    10.2336     0.2980    15.8313 </r>
       <r>    10.3500     0.1534    15.8670 </r>
       <r>    10.4665     0.1502    15.9016 </r>
       <r>    10.5829     0.0000    15.9016 </r>
       <r>    10.6994     0.1502    15.9191 </r>
       <r>    10.8158     0.0000    15.9235 </r>
       <r>    10.9323     0.3004    15.9585 </r>
       <r>    11.0488     0.0747    15.9759 </r>
       <r>    11.1652     0.0000    15.9759 </r>
       <r>    11.2817     0.0000    15.9759 </r>
       <r>    11.3981     0.0000    15.9759 </r>
       <r>    11.5146     0.0000    15.9759 </r>
       <r>    11.6310     0.0375    15.9978 </r>
       <r>    11.7475     0.0000    15.9978 </r>
       <r>    11.8640     0.0000    15.9978 </r>
       <r>    11.9804     0.0000    15.9978 </r>
       <r>    12.0969     0.0000    15.9978 </r>
       <r>    12.2133     0.0000    15.9978 </r>
       <r>    12.3298     0.0188    16.0000 </r>
       <r>    12.4462     0.0000    16.0000 </r>
       <r>    12.5627     0.0000    16.0000 </r>
       <r>    12.6792     0.0000    16.0000 </r>
       <r>    12.7956     0.0000    16.0000 </r>
       <r>    12.9121     0.0000    16.0000 </r>
       <r>    13.0285     0.0000    16.0000 </r>
       <r>    13.1450     0.0000    16.0000 </r>
       <r>    13.2614     0.0000    16.0000 </r>
       <r>    13.3779     0.0000    16.0000 </r>
       <r>    13.4944     0.0000    16.0000 </r>
       <r>    13.6108     0.0000    16.0000 </r>
       <r>    13.7273     0.0000    16.0000 </r>
       <r>    13.8437     0.0000    16.0000 </r>
      </set>
     </set>
    </array>
   </total>
  </dos>
 </calculation>
 <structure name="finalpos" >
  <crystal>
   <varray name="basis" >
    <v>      -2.89651424       0.00000000       2.89651424 </v>
    <v>       0.00000000       2.89651424       2.89651424 </v>
    <v>      -2.89651424       2.89651424       0.00000000 </v>
   </varray>
   <i name="volume">     48.60231964 </i>
   <varray name="rec_basis" >
    <v>      -0.17262128      -0.17262128       0.17262128 </v>
    <v>       0.17262128       0.17262128       0.17262128 </v>
    <v>      -0.17262128       0.17262128      -0.17262128 </v>
   </varray>
  </crystal>
  <varray name="positions" >
   <v>       0.00000000       0.00000000       0.00000000 </v>
  </varray>
 </structure>
</modeling>
