<?xml version="1.0" encoding="ISO-8859-1"?>
<modeling>
 <generator>
  <i name="program" type="string">vasp </i>
  <i name="version" type="string">5.4.4.18Apr17-6-g9f103f2a35  </i>
  <i name="subversion" type="string">(build Aug 24 2017 11:22:49) complex            parallel </i>
  <i name="platform" type="string">LinuxIFC </i>
  <i name="date" type="string">2023 12 25 </i>
  <i name="time" type="string">13:07:05 </i>
 </generator>
 <incar>
  <i type="string" name="PREC">accurate</i>
  <i type="string" name="ALGO"> Normal</i>
  <i type="int" name="NELM">   100</i>
  <i type="int" name="IBRION">     8</i>
  <i name="EDIFF">      0.00000001</i>
  <i name="SYMPREC">      0.00000001</i>
  <i name="ENCUT">    520.00000000</i>
  <i type="logical" name="LREAL"> F  </i>
  <i type="int" name="ISMEAR">     0</i>
  <i name="SIGMA">      0.01000000</i>
  <i type="logical" name="LWAVE"> F  </i>
  <v type="int" name="KPOINT_BSE">    -1     0     0     0</v>
  <i type="int" name="NELM">   100</i>
  <i type="logical" name="LPEAD"> T  </i>
  <i type="logical" name="LEPSILON"> T  </i>
 </incar>
 <structure name="primitive_cell" >
  <crystal>
   <varray name="basis" >
    <v>      -2.72185098       0.00000000       2.72185098 </v>
    <v>       0.00000000       2.72185098       2.72185098 </v>
    <v>      -2.72185098       2.72185098       0.00000000 </v>
   </varray>
   <i name="volume">     40.32951755 </i>
   <varray name="rec_basis" >
    <v>      -0.18369852      -0.18369852       0.18369852 </v>
    <v>       0.18369852       0.18369852       0.18369852 </v>
    <v>      -0.18369852       0.18369852      -0.18369852 </v>
   </varray>
  </crystal>
  <varray name="positions" >
   <v>       0.24999994       0.25000010       0.25000002 </v>
   <v>      -0.49999996      -0.49999996       0.49999996 </v>
  </varray>
 </structure>
 <varray name="primitive_index" >
  <v type="int" >        1 </v>
  <v type="int" >        2 </v>
 </varray>
 <kpoints>
  <generation param="Gamma">
   <v type="int" name="divisions">      12       12       12 </v>
   <v name="usershift">      0.00000000       0.00000000       0.00000000 </v>
   <v name="genvec1">      0.08333333       0.00000000       0.00000000 </v>
   <v name="genvec2">      0.00000000       0.08333333      -0.00000000 </v>
   <v name="genvec3">     -0.00000000      -0.00000000       0.08333333 </v>
   <v name="shift">      0.00000000       0.00000000       0.00000000 </v>
  </generation>
  <varray name="kpointlist" >
   <v>       0.00000000       0.00000000       0.00000000 </v>
   <v>       0.08333333      -0.00000000       0.00000000 </v>
   <v>       0.16666667      -0.00000000       0.00000000 </v>
   <v>       0.25000000      -0.00000000      -0.00000000 </v>
   <v>       0.33333333      -0.00000000      -0.00000000 </v>
   <v>       0.41666667       0.00000000       0.00000000 </v>
   <v>       0.50000000      -0.00000000      -0.00000000 </v>
   <v>      -0.00000000       0.08333333       0.00000000 </v>
   <v>       0.08333333       0.08333333       0.00000000 </v>
   <v>       0.16666667       0.08333333       0.00000000 </v>
   <v>       0.25000000       0.08333333       0.00000000 </v>
   <v>       0.33333333       0.08333333      -0.00000000 </v>
   <v>       0.41666667       0.08333333       0.00000000 </v>
   <v>       0.50000000       0.08333333       0.00000000 </v>
   <v>      -0.41666667       0.08333333       0.00000000 </v>
   <v>      -0.33333333       0.08333333      -0.00000000 </v>
   <v>      -0.25000000       0.08333333       0.00000000 </v>
   <v>      -0.16666667       0.08333333       0.00000000 </v>
   <v>      -0.08333333       0.08333333       0.00000000 </v>
   <v>      -0.00000000       0.16666667       0.00000000 </v>
   <v>       0.08333333       0.16666667       0.00000000 </v>
   <v>       0.16666667       0.16666667       0.00000000 </v>
   <v>       0.25000000       0.16666667       0.00000000 </v>
   <v>       0.33333333       0.16666667       0.00000000 </v>
   <v>       0.41666667       0.16666667       0.00000000 </v>
   <v>       0.50000000       0.16666667       0.00000000 </v>
   <v>      -0.41666667       0.16666667      -0.00000000 </v>
   <v>      -0.33333333       0.16666667       0.00000000 </v>
   <v>      -0.25000000       0.16666667      -0.00000000 </v>
   <v>      -0.16666667       0.16666667       0.00000000 </v>
   <v>      -0.08333333       0.16666667       0.00000000 </v>
   <v>       0.00000000       0.25000000       0.00000000 </v>
   <v>       0.08333333       0.25000000       0.00000000 </v>
   <v>       0.16666667       0.25000000      -0.00000000 </v>
   <v>       0.25000000       0.25000000       0.00000000 </v>
   <v>       0.33333333       0.25000000       0.00000000 </v>
   <v>       0.41666667       0.25000000       0.00000000 </v>
   <v>       0.50000000       0.25000000       0.00000000 </v>
   <v>      -0.41666667       0.25000000       0.00000000 </v>
   <v>      -0.33333333       0.25000000       0.00000000 </v>
   <v>      -0.25000000       0.25000000       0.00000000 </v>
   <v>      -0.16666667       0.25000000      -0.00000000 </v>
   <v>      -0.08333333       0.25000000       0.00000000 </v>
   <v>      -0.00000000       0.33333333       0.00000000 </v>
   <v>       0.08333333       0.33333333       0.00000000 </v>
   <v>       0.16666667       0.33333333       0.00000000 </v>
   <v>       0.25000000       0.33333333       0.00000000 </v>
   <v>       0.33333333       0.33333333       0.00000000 </v>
   <v>       0.41666667       0.33333333       0.00000000 </v>
   <v>       0.50000000       0.33333333      -0.00000000 </v>
   <v>      -0.41666667       0.33333333       0.00000000 </v>
   <v>      -0.33333333       0.33333333       0.00000000 </v>
   <v>      -0.25000000       0.33333333       0.00000000 </v>
   <v>      -0.16666667       0.33333333       0.00000000 </v>
   <v>      -0.08333333       0.33333333      -0.00000000 </v>
   <v>       0.00000000       0.41666667       0.00000000 </v>
   <v>       0.08333333       0.41666667      -0.00000000 </v>
   <v>       0.16666667       0.41666667       0.00000000 </v>
   <v>       0.25000000       0.41666667       0.00000000 </v>
   <v>       0.33333333       0.41666667       0.00000000 </v>
   <v>       0.41666667       0.41666667       0.00000000 </v>
   <v>       0.50000000       0.41666667       0.00000000 </v>
   <v>      -0.41666667       0.41666667      -0.00000000 </v>
   <v>      -0.33333333       0.41666667       0.00000000 </v>
   <v>      -0.25000000       0.41666667       0.00000000 </v>
   <v>      -0.16666667       0.41666667       0.00000000 </v>
   <v>      -0.08333333       0.41666667       0.00000000 </v>
   <v>       0.00000000       0.50000000       0.00000000 </v>
   <v>       0.08333333       0.50000000       0.00000000 </v>
   <v>       0.16666667       0.50000000       0.00000000 </v>
   <v>       0.25000000       0.50000000       0.00000000 </v>
   <v>       0.33333333       0.50000000       0.00000000 </v>
   <v>       0.41666667       0.50000000       0.00000000 </v>
   <v>       0.50000000       0.50000000       0.00000000 </v>
   <v>       0.00000000       0.08333333       0.08333333 </v>
   <v>       0.08333333       0.08333333       0.08333333 </v>
   <v>       0.16666667       0.08333333       0.08333333 </v>
   <v>       0.25000000       0.08333333       0.08333333 </v>
   <v>       0.33333333       0.08333333       0.08333333 </v>
   <v>       0.41666667       0.08333333       0.08333333 </v>
   <v>       0.50000000       0.08333333       0.08333333 </v>
   <v>      -0.41666667       0.08333333       0.08333333 </v>
   <v>      -0.33333333       0.08333333       0.08333333 </v>
   <v>      -0.25000000       0.08333333       0.08333333 </v>
   <v>      -0.16666667       0.08333333       0.08333333 </v>
   <v>      -0.08333333       0.08333333       0.08333333 </v>
   <v>       0.00000000       0.16666667       0.08333333 </v>
   <v>       0.08333333       0.16666667       0.08333333 </v>
   <v>       0.16666667       0.16666667       0.08333333 </v>
   <v>       0.25000000       0.16666667       0.08333333 </v>
   <v>       0.33333333       0.16666667       0.08333333 </v>
   <v>       0.41666667       0.16666667       0.08333333 </v>
   <v>       0.50000000       0.16666667       0.08333333 </v>
   <v>      -0.41666667       0.16666667       0.08333333 </v>
   <v>      -0.33333333       0.16666667       0.08333333 </v>
   <v>      -0.25000000       0.16666667       0.08333333 </v>
   <v>      -0.16666667       0.16666667       0.08333333 </v>
   <v>      -0.08333333       0.16666667       0.08333333 </v>
   <v>       0.00000000       0.25000000       0.08333333 </v>
   <v>       0.08333333       0.25000000       0.08333333 </v>
   <v>       0.16666667       0.25000000       0.08333333 </v>
   <v>       0.25000000       0.25000000       0.08333333 </v>
   <v>       0.33333333       0.25000000       0.08333333 </v>
   <v>       0.41666667       0.25000000       0.08333333 </v>
   <v>       0.50000000       0.25000000       0.08333333 </v>
   <v>      -0.41666667       0.25000000       0.08333333 </v>
   <v>      -0.33333333       0.25000000       0.08333333 </v>
   <v>      -0.25000000       0.25000000       0.08333333 </v>
   <v>      -0.16666667       0.25000000       0.08333333 </v>
   <v>      -0.08333333       0.25000000       0.08333333 </v>
   <v>       0.00000000       0.33333333       0.08333333 </v>
   <v>       0.08333333       0.33333333       0.08333333 </v>
   <v>       0.16666667       0.33333333       0.08333333 </v>
   <v>       0.25000000       0.33333333       0.08333333 </v>
   <v>       0.33333333       0.33333333       0.08333333 </v>
   <v>       0.41666667       0.33333333       0.08333333 </v>
   <v>       0.50000000       0.33333333       0.08333333 </v>
   <v>      -0.41666667       0.33333333       0.08333333 </v>
   <v>      -0.33333333       0.33333333       0.08333333 </v>
   <v>      -0.25000000       0.33333333       0.08333333 </v>
   <v>      -0.16666667       0.33333333       0.08333333 </v>
   <v>      -0.08333333       0.33333333       0.08333333 </v>
   <v>       0.00000000       0.41666667       0.08333333 </v>
   <v>       0.08333333       0.41666667       0.08333333 </v>
   <v>       0.16666667       0.41666667       0.08333333 </v>
   <v>       0.25000000       0.41666667       0.08333333 </v>
   <v>       0.33333333       0.41666667       0.08333333 </v>
   <v>       0.41666667       0.41666667       0.08333333 </v>
   <v>       0.50000000       0.41666667       0.08333333 </v>
   <v>      -0.41666667       0.41666667       0.08333333 </v>
   <v>      -0.33333333       0.41666667       0.08333333 </v>
   <v>      -0.25000000       0.41666667       0.08333333 </v>
   <v>      -0.16666667       0.41666667       0.08333333 </v>
   <v>      -0.08333333       0.41666667       0.08333333 </v>
   <v>       0.00000000       0.50000000       0.08333333 </v>
   <v>       0.08333333       0.50000000       0.08333333 </v>
   <v>       0.16666667       0.50000000       0.08333333 </v>
   <v>       0.25000000       0.50000000       0.08333333 </v>
   <v>       0.33333333       0.50000000       0.08333333 </v>
   <v>       0.41666667       0.50000000       0.08333333 </v>
   <v>       0.50000000       0.50000000       0.08333333 </v>
   <v>      -0.41666667       0.50000000       0.08333333 </v>
   <v>      -0.33333333       0.50000000       0.08333333 </v>
   <v>      -0.25000000       0.50000000       0.08333333 </v>
   <v>      -0.16666667       0.50000000       0.08333333 </v>
   <v>      -0.08333333       0.50000000       0.08333333 </v>
   <v>      -0.00000000      -0.41666667       0.08333333 </v>
   <v>       0.08333333      -0.41666667       0.08333333 </v>
   <v>       0.16666667      -0.41666667       0.08333333 </v>
   <v>       0.25000000      -0.41666667       0.08333333 </v>
   <v>       0.33333333      -0.41666667       0.08333333 </v>
   <v>       0.41666667      -0.41666667       0.08333333 </v>
   <v>       0.50000000      -0.41666667       0.08333333 </v>
   <v>      -0.41666667      -0.41666667       0.08333333 </v>
   <v>      -0.33333333      -0.41666667       0.08333333 </v>
   <v>      -0.25000000      -0.41666667       0.08333333 </v>
   <v>      -0.16666667      -0.41666667       0.08333333 </v>
   <v>      -0.08333333      -0.41666667       0.08333333 </v>
   <v>      -0.00000000      -0.33333333       0.08333333 </v>
   <v>       0.08333333      -0.33333333       0.08333333 </v>
   <v>       0.16666667      -0.33333333       0.08333333 </v>
   <v>       0.25000000      -0.33333333       0.08333333 </v>
   <v>       0.33333333      -0.33333333       0.08333333 </v>
   <v>       0.41666667      -0.33333333       0.08333333 </v>
   <v>       0.50000000      -0.33333333       0.08333333 </v>
   <v>      -0.41666667      -0.33333333       0.08333333 </v>
   <v>      -0.33333333      -0.33333333       0.08333333 </v>
   <v>      -0.25000000      -0.33333333       0.08333333 </v>
   <v>      -0.16666667      -0.33333333       0.08333333 </v>
   <v>      -0.08333333      -0.33333333       0.08333333 </v>
   <v>      -0.00000000      -0.25000000       0.08333333 </v>
   <v>       0.08333333      -0.25000000       0.08333333 </v>
   <v>       0.16666667      -0.25000000       0.08333333 </v>
   <v>       0.25000000      -0.25000000       0.08333333 </v>
   <v>       0.33333333      -0.25000000       0.08333333 </v>
   <v>       0.41666667      -0.25000000       0.08333333 </v>
   <v>       0.50000000      -0.25000000       0.08333333 </v>
   <v>      -0.41666667      -0.25000000       0.08333333 </v>
   <v>      -0.33333333      -0.25000000       0.08333333 </v>
   <v>      -0.25000000      -0.25000000       0.08333333 </v>
   <v>      -0.16666667      -0.25000000       0.08333333 </v>
   <v>      -0.08333333      -0.25000000       0.08333333 </v>
   <v>      -0.00000000      -0.16666667       0.08333333 </v>
   <v>       0.08333333      -0.16666667       0.08333333 </v>
   <v>       0.16666667      -0.16666667       0.08333333 </v>
   <v>       0.25000000      -0.16666667       0.08333333 </v>
   <v>       0.33333333      -0.16666667       0.08333333 </v>
   <v>       0.41666667      -0.16666667       0.08333333 </v>
   <v>       0.50000000      -0.16666667       0.08333333 </v>
   <v>      -0.41666667      -0.16666667       0.08333333 </v>
   <v>      -0.33333333      -0.16666667       0.08333333 </v>
   <v>      -0.25000000      -0.16666667       0.08333333 </v>
   <v>      -0.16666667      -0.16666667       0.08333333 </v>
   <v>      -0.08333333      -0.16666667       0.08333333 </v>
   <v>       0.00000000      -0.08333333       0.08333333 </v>
   <v>       0.08333333      -0.08333333       0.08333333 </v>
   <v>       0.16666667      -0.08333333       0.08333333 </v>
   <v>       0.25000000      -0.08333333       0.08333333 </v>
   <v>       0.33333333      -0.08333333       0.08333333 </v>
   <v>       0.41666667      -0.08333333       0.08333333 </v>
   <v>       0.50000000      -0.08333333       0.08333333 </v>
   <v>       0.00000000       0.16666667       0.16666667 </v>
   <v>       0.08333333       0.16666667       0.16666667 </v>
   <v>       0.16666667       0.16666667       0.16666667 </v>
   <v>       0.25000000       0.16666667       0.16666667 </v>
   <v>       0.33333333       0.16666667       0.16666667 </v>
   <v>       0.41666667       0.16666667       0.16666667 </v>
   <v>       0.50000000       0.16666667       0.16666667 </v>
   <v>      -0.41666667       0.16666667       0.16666667 </v>
   <v>      -0.33333333       0.16666667       0.16666667 </v>
   <v>      -0.25000000       0.16666667       0.16666667 </v>
   <v>      -0.16666667       0.16666667       0.16666667 </v>
   <v>      -0.08333333       0.16666667       0.16666667 </v>
   <v>       0.00000000       0.25000000       0.16666667 </v>
   <v>       0.08333333       0.25000000       0.16666667 </v>
   <v>       0.16666667       0.25000000       0.16666667 </v>
   <v>       0.25000000       0.25000000       0.16666667 </v>
   <v>       0.33333333       0.25000000       0.16666667 </v>
   <v>       0.41666667       0.25000000       0.16666667 </v>
   <v>       0.50000000       0.25000000       0.16666667 </v>
   <v>      -0.41666667       0.25000000       0.16666667 </v>
   <v>      -0.33333333       0.25000000       0.16666667 </v>
   <v>      -0.25000000       0.25000000       0.16666667 </v>
   <v>      -0.16666667       0.25000000       0.16666667 </v>
   <v>      -0.08333333       0.25000000       0.16666667 </v>
   <v>       0.00000000       0.33333333       0.16666667 </v>
   <v>       0.08333333       0.33333333       0.16666667 </v>
   <v>       0.16666667       0.33333333       0.16666667 </v>
   <v>       0.25000000       0.33333333       0.16666667 </v>
   <v>       0.33333333       0.33333333       0.16666667 </v>
   <v>       0.41666667       0.33333333       0.16666667 </v>
   <v>       0.50000000       0.33333333       0.16666667 </v>
   <v>      -0.41666667       0.33333333       0.16666667 </v>
   <v>      -0.33333333       0.33333333       0.16666667 </v>
   <v>      -0.25000000       0.33333333       0.16666667 </v>
   <v>      -0.16666667       0.33333333       0.16666667 </v>
   <v>      -0.08333333       0.33333333       0.16666667 </v>
   <v>       0.00000000       0.41666667       0.16666667 </v>
   <v>       0.08333333       0.41666667       0.16666667 </v>
   <v>       0.16666667       0.41666667       0.16666667 </v>
   <v>       0.25000000       0.41666667       0.16666667 </v>
   <v>       0.33333333       0.41666667       0.16666667 </v>
   <v>       0.41666667       0.41666667       0.16666667 </v>
   <v>       0.50000000       0.41666667       0.16666667 </v>
   <v>      -0.41666667       0.41666667       0.16666667 </v>
   <v>      -0.33333333       0.41666667       0.16666667 </v>
   <v>      -0.25000000       0.41666667       0.16666667 </v>
   <v>      -0.16666667       0.41666667       0.16666667 </v>
   <v>      -0.08333333       0.41666667       0.16666667 </v>
   <v>       0.00000000       0.50000000       0.16666667 </v>
   <v>       0.08333333       0.50000000       0.16666667 </v>
   <v>       0.16666667       0.50000000       0.16666667 </v>
   <v>       0.25000000       0.50000000       0.16666667 </v>
   <v>       0.33333333       0.50000000       0.16666667 </v>
   <v>       0.41666667       0.50000000       0.16666667 </v>
   <v>       0.50000000       0.50000000       0.16666667 </v>
   <v>      -0.41666667       0.50000000       0.16666667 </v>
   <v>      -0.33333333       0.50000000       0.16666667 </v>
   <v>      -0.25000000       0.50000000       0.16666667 </v>
   <v>      -0.16666667       0.50000000       0.16666667 </v>
   <v>      -0.08333333       0.50000000       0.16666667 </v>
   <v>       0.00000000      -0.41666667       0.16666667 </v>
   <v>       0.08333333      -0.41666667       0.16666667 </v>
   <v>       0.16666667      -0.41666667       0.16666667 </v>
   <v>       0.25000000      -0.41666667       0.16666667 </v>
   <v>       0.33333333      -0.41666667       0.16666667 </v>
   <v>       0.41666667      -0.41666667       0.16666667 </v>
   <v>       0.50000000      -0.41666667       0.16666667 </v>
   <v>      -0.41666667      -0.41666667       0.16666667 </v>
   <v>      -0.33333333      -0.41666667       0.16666667 </v>
   <v>      -0.25000000      -0.41666667       0.16666667 </v>
   <v>      -0.16666667      -0.41666667       0.16666667 </v>
   <v>      -0.08333333      -0.41666667       0.16666667 </v>
   <v>      -0.00000000      -0.33333333       0.16666667 </v>
   <v>       0.08333333      -0.33333333       0.16666667 </v>
   <v>       0.16666667      -0.33333333       0.16666667 </v>
   <v>       0.25000000      -0.33333333       0.16666667 </v>
   <v>       0.33333333      -0.33333333       0.16666667 </v>
   <v>       0.41666667      -0.33333333       0.16666667 </v>
   <v>       0.50000000      -0.33333333       0.16666667 </v>
   <v>      -0.41666667      -0.33333333       0.16666667 </v>
   <v>      -0.33333333      -0.33333333       0.16666667 </v>
   <v>      -0.25000000      -0.33333333       0.16666667 </v>
   <v>      -0.16666667      -0.33333333       0.16666667 </v>
   <v>      -0.08333333      -0.33333333       0.16666667 </v>
   <v>      -0.00000000      -0.25000000       0.16666667 </v>
   <v>       0.08333333      -0.25000000       0.16666667 </v>
   <v>       0.16666667      -0.25000000       0.16666667 </v>
   <v>       0.25000000      -0.25000000       0.16666667 </v>
   <v>       0.33333333      -0.25000000       0.16666667 </v>
   <v>       0.41666667      -0.25000000       0.16666667 </v>
   <v>       0.50000000      -0.25000000       0.16666667 </v>
   <v>      -0.41666667      -0.25000000       0.16666667 </v>
   <v>      -0.33333333      -0.25000000       0.16666667 </v>
   <v>      -0.25000000      -0.25000000       0.16666667 </v>
   <v>      -0.16666667      -0.25000000       0.16666667 </v>
   <v>      -0.08333333      -0.25000000       0.16666667 </v>
   <v>       0.00000000      -0.16666667       0.16666667 </v>
   <v>       0.08333333      -0.16666667       0.16666667 </v>
   <v>       0.16666667      -0.16666667       0.16666667 </v>
   <v>       0.25000000      -0.16666667       0.16666667 </v>
   <v>       0.33333333      -0.16666667       0.16666667 </v>
   <v>       0.41666667      -0.16666667       0.16666667 </v>
   <v>       0.50000000      -0.16666667       0.16666667 </v>
   <v>       0.00000000       0.25000000       0.25000000 </v>
   <v>       0.08333333       0.25000000       0.25000000 </v>
   <v>       0.16666667       0.25000000       0.25000000 </v>
   <v>       0.25000000       0.25000000       0.25000000 </v>
   <v>       0.33333333       0.25000000       0.25000000 </v>
   <v>       0.41666667       0.25000000       0.25000000 </v>
   <v>       0.50000000       0.25000000       0.25000000 </v>
   <v>      -0.41666667       0.25000000       0.25000000 </v>
   <v>      -0.33333333       0.25000000       0.25000000 </v>
   <v>      -0.25000000       0.25000000       0.25000000 </v>
   <v>      -0.16666667       0.25000000       0.25000000 </v>
   <v>      -0.08333333       0.25000000       0.25000000 </v>
   <v>       0.00000000       0.33333333       0.25000000 </v>
   <v>       0.08333333       0.33333333       0.25000000 </v>
   <v>       0.16666667       0.33333333       0.25000000 </v>
   <v>       0.25000000       0.33333333       0.25000000 </v>
   <v>       0.33333333       0.33333333       0.25000000 </v>
   <v>       0.41666667       0.33333333       0.25000000 </v>
   <v>       0.50000000       0.33333333       0.25000000 </v>
   <v>      -0.41666667       0.33333333       0.25000000 </v>
   <v>      -0.33333333       0.33333333       0.25000000 </v>
   <v>      -0.25000000       0.33333333       0.25000000 </v>
   <v>      -0.16666667       0.33333333       0.25000000 </v>
   <v>      -0.08333333       0.33333333       0.25000000 </v>
   <v>       0.00000000       0.41666667       0.25000000 </v>
   <v>       0.08333333       0.41666667       0.25000000 </v>
   <v>       0.16666667       0.41666667       0.25000000 </v>
   <v>       0.25000000       0.41666667       0.25000000 </v>
   <v>       0.33333333       0.41666667       0.25000000 </v>
   <v>       0.41666667       0.41666667       0.25000000 </v>
   <v>       0.50000000       0.41666667       0.25000000 </v>
   <v>      -0.41666667       0.41666667       0.25000000 </v>
   <v>      -0.33333333       0.41666667       0.25000000 </v>
   <v>      -0.25000000       0.41666667       0.25000000 </v>
   <v>      -0.16666667       0.41666667       0.25000000 </v>
   <v>      -0.08333333       0.41666667       0.25000000 </v>
   <v>       0.00000000       0.50000000       0.25000000 </v>
   <v>       0.08333333       0.50000000       0.25000000 </v>
   <v>       0.16666667       0.50000000       0.25000000 </v>
   <v>       0.25000000       0.50000000       0.25000000 </v>
   <v>       0.33333333       0.50000000       0.25000000 </v>
   <v>       0.41666667       0.50000000       0.25000000 </v>
   <v>       0.50000000       0.50000000       0.25000000 </v>
   <v>      -0.41666667       0.50000000       0.25000000 </v>
   <v>      -0.33333333       0.50000000       0.25000000 </v>
   <v>      -0.25000000       0.50000000       0.25000000 </v>
   <v>      -0.16666667       0.50000000       0.25000000 </v>
   <v>      -0.08333333       0.50000000       0.25000000 </v>
   <v>       0.00000000      -0.41666667       0.25000000 </v>
   <v>       0.08333333      -0.41666667       0.25000000 </v>
   <v>       0.16666667      -0.41666667       0.25000000 </v>
   <v>       0.25000000      -0.41666667       0.25000000 </v>
   <v>       0.33333333      -0.41666667       0.25000000 </v>
   <v>       0.41666667      -0.41666667       0.25000000 </v>
   <v>       0.50000000      -0.41666667       0.25000000 </v>
   <v>      -0.41666667      -0.41666667       0.25000000 </v>
   <v>      -0.33333333      -0.41666667       0.25000000 </v>
   <v>      -0.25000000      -0.41666667       0.25000000 </v>
   <v>      -0.16666667      -0.41666667       0.25000000 </v>
   <v>      -0.08333333      -0.41666667       0.25000000 </v>
   <v>       0.00000000      -0.33333333       0.25000000 </v>
   <v>       0.08333333      -0.33333333       0.25000000 </v>
   <v>       0.16666667      -0.33333333       0.25000000 </v>
   <v>       0.25000000      -0.33333333       0.25000000 </v>
   <v>       0.33333333      -0.33333333       0.25000000 </v>
   <v>       0.41666667      -0.33333333       0.25000000 </v>
   <v>       0.50000000      -0.33333333       0.25000000 </v>
   <v>      -0.41666667      -0.33333333       0.25000000 </v>
   <v>      -0.33333333      -0.33333333       0.25000000 </v>
   <v>      -0.25000000      -0.33333333       0.25000000 </v>
   <v>      -0.16666667      -0.33333333       0.25000000 </v>
   <v>      -0.08333333      -0.33333333       0.25000000 </v>
   <v>       0.00000000      -0.25000000       0.25000000 </v>
   <v>       0.08333333      -0.25000000       0.25000000 </v>
   <v>       0.16666667      -0.25000000       0.25000000 </v>
   <v>       0.25000000      -0.25000000       0.25000000 </v>
   <v>       0.33333333      -0.25000000       0.25000000 </v>
   <v>       0.41666667      -0.25000000       0.25000000 </v>
   <v>       0.50000000      -0.25000000       0.25000000 </v>
   <v>       0.00000000       0.33333333       0.33333333 </v>
   <v>       0.08333333       0.33333333       0.33333333 </v>
   <v>       0.16666667       0.33333333       0.33333333 </v>
   <v>       0.25000000       0.33333333       0.33333333 </v>
   <v>       0.33333333       0.33333333       0.33333333 </v>
   <v>       0.41666667       0.33333333       0.33333333 </v>
   <v>       0.50000000       0.33333333       0.33333333 </v>
   <v>      -0.41666667       0.33333333       0.33333333 </v>
   <v>      -0.33333333       0.33333333       0.33333333 </v>
   <v>      -0.25000000       0.33333333       0.33333333 </v>
   <v>      -0.16666667       0.33333333       0.33333333 </v>
   <v>      -0.08333333       0.33333333       0.33333333 </v>
   <v>       0.00000000       0.41666667       0.33333333 </v>
   <v>       0.08333333       0.41666667       0.33333333 </v>
   <v>       0.16666667       0.41666667       0.33333333 </v>
   <v>       0.25000000       0.41666667       0.33333333 </v>
   <v>       0.33333333       0.41666667       0.33333333 </v>
   <v>       0.41666667       0.41666667       0.33333333 </v>
   <v>       0.50000000       0.41666667       0.33333333 </v>
   <v>      -0.41666667       0.41666667       0.33333333 </v>
   <v>      -0.33333333       0.41666667       0.33333333 </v>
   <v>      -0.25000000       0.41666667       0.33333333 </v>
   <v>      -0.16666667       0.41666667       0.33333333 </v>
   <v>      -0.08333333       0.41666667       0.33333333 </v>
   <v>       0.00000000       0.50000000       0.33333333 </v>
   <v>       0.08333333       0.50000000       0.33333333 </v>
   <v>       0.16666667       0.50000000       0.33333333 </v>
   <v>       0.25000000       0.50000000       0.33333333 </v>
   <v>       0.33333333       0.50000000       0.33333333 </v>
   <v>       0.41666667       0.50000000       0.33333333 </v>
   <v>       0.50000000       0.50000000       0.33333333 </v>
   <v>      -0.41666667       0.50000000       0.33333333 </v>
   <v>      -0.33333333       0.50000000       0.33333333 </v>
   <v>      -0.25000000       0.50000000       0.33333333 </v>
   <v>      -0.16666667       0.50000000       0.33333333 </v>
   <v>      -0.08333333       0.50000000       0.33333333 </v>
   <v>       0.00000000      -0.41666667       0.33333333 </v>
   <v>       0.08333333      -0.41666667       0.33333333 </v>
   <v>       0.16666667      -0.41666667       0.33333333 </v>
   <v>       0.25000000      -0.41666667       0.33333333 </v>
   <v>       0.33333333      -0.41666667       0.33333333 </v>
   <v>       0.41666667      -0.41666667       0.33333333 </v>
   <v>       0.50000000      -0.41666667       0.33333333 </v>
   <v>      -0.41666667      -0.41666667       0.33333333 </v>
   <v>      -0.33333333      -0.41666667       0.33333333 </v>
   <v>      -0.25000000      -0.41666667       0.33333333 </v>
   <v>      -0.16666667      -0.41666667       0.33333333 </v>
   <v>      -0.08333333      -0.41666667       0.33333333 </v>
   <v>       0.00000000      -0.33333333       0.33333333 </v>
   <v>       0.08333333      -0.33333333       0.33333333 </v>
   <v>       0.16666667      -0.33333333       0.33333333 </v>
   <v>       0.25000000      -0.33333333       0.33333333 </v>
   <v>       0.33333333      -0.33333333       0.33333333 </v>
   <v>       0.41666667      -0.33333333       0.33333333 </v>
   <v>       0.50000000      -0.33333333       0.33333333 </v>
   <v>       0.00000000       0.41666667       0.41666667 </v>
   <v>       0.08333333       0.41666667       0.41666667 </v>
   <v>       0.16666667       0.41666667       0.41666667 </v>
   <v>       0.25000000       0.41666667       0.41666667 </v>
   <v>       0.33333333       0.41666667       0.41666667 </v>
   <v>       0.41666667       0.41666667       0.41666667 </v>
   <v>       0.50000000       0.41666667       0.41666667 </v>
   <v>      -0.41666667       0.41666667       0.41666667 </v>
   <v>      -0.33333333       0.41666667       0.41666667 </v>
   <v>      -0.25000000       0.41666667       0.41666667 </v>
   <v>      -0.16666667       0.41666667       0.41666667 </v>
   <v>      -0.08333333       0.41666667       0.41666667 </v>
   <v>       0.00000000       0.50000000       0.41666667 </v>
   <v>       0.08333333       0.50000000       0.41666667 </v>
   <v>       0.16666667       0.50000000       0.41666667 </v>
   <v>       0.25000000       0.50000000       0.41666667 </v>
   <v>       0.33333333       0.50000000       0.41666667 </v>
   <v>       0.41666667       0.50000000       0.41666667 </v>
   <v>       0.50000000       0.50000000       0.41666667 </v>
   <v>      -0.41666667       0.50000000       0.41666667 </v>
   <v>      -0.33333333       0.50000000       0.41666667 </v>
   <v>      -0.25000000       0.50000000       0.41666667 </v>
   <v>      -0.16666667       0.50000000       0.41666667 </v>
   <v>      -0.08333333       0.50000000       0.41666667 </v>
   <v>       0.00000000      -0.41666667       0.41666667 </v>
   <v>       0.08333333      -0.41666667       0.41666667 </v>
   <v>       0.16666667      -0.41666667       0.41666667 </v>
   <v>       0.25000000      -0.41666667       0.41666667 </v>
   <v>       0.33333333      -0.41666667       0.41666667 </v>
   <v>       0.41666667      -0.41666667       0.41666667 </v>
   <v>       0.50000000      -0.41666667       0.41666667 </v>
   <v>       0.00000000       0.50000000       0.50000000 </v>
   <v>       0.08333333       0.50000000       0.50000000 </v>
   <v>       0.16666667       0.50000000       0.50000000 </v>
   <v>       0.25000000       0.50000000       0.50000000 </v>
   <v>       0.33333333       0.50000000       0.50000000 </v>
   <v>       0.41666667       0.50000000       0.50000000 </v>
   <v>       0.50000000       0.50000000       0.50000000 </v>
  </varray>
  <varray name="weights" >
   <v>       0.00057870 </v>
   <v>       0.00115741 </v>
   <v>       0.00115741 </v>
   <v>       0.00115741 </v>
   <v>       0.00115741 </v>
   <v>       0.00115741 </v>
   <v>       0.00057870 </v>
   <v>       0.00231481 </v>
   <v>       0.00231481 </v>
   <v>       0.00231481 </v>
   <v>       0.00231481 </v>
   <v>       0.00231481 </v>
   <v>       0.00231481 </v>
   <v>       0.00231481 </v>
   <v>       0.00231481 </v>
   <v>       0.00231481 </v>
   <v>       0.00231481 </v>
   <v>       0.00231481 </v>
   <v>       0.00231481 </v>
   <v>       0.00231481 </v>
   <v>       0.00231481 </v>
   <v>       0.00231481 </v>
   <v>       0.00231481 </v>
   <v>       0.00231481 </v>
   <v>       0.00231481 </v>
   <v>       0.00231481 </v>
   <v>       0.00231481 </v>
   <v>       0.00231481 </v>
   <v>       0.00231481 </v>
   <v>       0.00231481 </v>
   <v>       0.00231481 </v>
   <v>       0.00231481 </v>
   <v>       0.00231481 </v>
   <v>       0.00231481 </v>
   <v>       0.00231481 </v>
   <v>       0.00231481 </v>
   <v>       0.00231481 </v>
   <v>       0.00231481 </v>
   <v>       0.00231481 </v>
   <v>       0.00231481 </v>
   <v>       0.00231481 </v>
   <v>       0.00231481 </v>
   <v>       0.00231481 </v>
   <v>       0.00231481 </v>
   <v>       0.00231481 </v>
   <v>       0.00231481 </v>
   <v>       0.00231481 </v>
   <v>       0.00231481 </v>
   <v>       0.00231481 </v>
   <v>       0.00231481 </v>
   <v>       0.00231481 </v>
   <v>       0.00231481 </v>
   <v>       0.00231481 </v>
   <v>       0.00231481 </v>
   <v>       0.00231481 </v>
   <v>       0.00231481 </v>
   <v>       0.00231481 </v>
   <v>       0.00231481 </v>
   <v>       0.00231481 </v>
   <v>       0.00231481 </v>
   <v>       0.00231481 </v>
   <v>       0.00231481 </v>
   <v>       0.00231481 </v>
   <v>       0.00231481 </v>
   <v>       0.00231481 </v>
   <v>       0.00231481 </v>
   <v>       0.00231481 </v>
   <v>       0.00115741 </v>
   <v>       0.00231481 </v>
   <v>       0.00231481 </v>
   <v>       0.00231481 </v>
   <v>       0.00231481 </v>
   <v>       0.00231481 </v>
   <v>       0.00115741 </v>
   <v>       0.00115741 </v>
   <v>       0.00115741 </v>
   <v>       0.00115741 </v>
   <v>       0.00115741 </v>
   <v>       0.00115741 </v>
   <v>       0.00115741 </v>
   <v>       0.00115741 </v>
   <v>       0.00115741 </v>
   <v>       0.00115741 </v>
   <v>       0.00115741 </v>
   <v>       0.00115741 </v>
   <v>       0.00115741 </v>
   <v>       0.00231481 </v>
   <v>       0.00231481 </v>
   <v>       0.00231481 </v>
   <v>       0.00231481 </v>
   <v>       0.00231481 </v>
   <v>       0.00231481 </v>
   <v>       0.00231481 </v>
   <v>       0.00231481 </v>
   <v>       0.00231481 </v>
   <v>       0.00231481 </v>
   <v>       0.00231481 </v>
   <v>       0.00231481 </v>
   <v>       0.00231481 </v>
   <v>       0.00231481 </v>
   <v>       0.00231481 </v>
   <v>       0.00231481 </v>
   <v>       0.00231481 </v>
   <v>       0.00231481 </v>
   <v>       0.00231481 </v>
   <v>       0.00231481 </v>
   <v>       0.00231481 </v>
   <v>       0.00231481 </v>
   <v>       0.00231481 </v>
   <v>       0.00231481 </v>
   <v>       0.00231481 </v>
   <v>       0.00231481 </v>
   <v>       0.00231481 </v>
   <v>       0.00231481 </v>
   <v>       0.00231481 </v>
   <v>       0.00231481 </v>
   <v>       0.00231481 </v>
   <v>       0.00231481 </v>
   <v>       0.00231481 </v>
   <v>       0.00231481 </v>
   <v>       0.00231481 </v>
   <v>       0.00231481 </v>
   <v>       0.00231481 </v>
   <v>       0.00231481 </v>
   <v>       0.00231481 </v>
   <v>       0.00231481 </v>
   <v>       0.00231481 </v>
   <v>       0.00231481 </v>
   <v>       0.00231481 </v>
   <v>       0.00231481 </v>
   <v>       0.00231481 </v>
   <v>       0.00231481 </v>
   <v>       0.00231481 </v>
   <v>       0.00231481 </v>
   <v>       0.00231481 </v>
   <v>       0.00231481 </v>
   <v>       0.00231481 </v>
   <v>       0.00231481 </v>
   <v>       0.00231481 </v>
   <v>       0.00231481 </v>
   <v>       0.00231481 </v>
   <v>       0.00231481 </v>
   <v>       0.00231481 </v>
   <v>       0.00231481 </v>
   <v>       0.00231481 </v>
   <v>       0.00231481 </v>
   <v>       0.00231481 </v>
   <v>       0.00231481 </v>
   <v>       0.00231481 </v>
   <v>       0.00231481 </v>
   <v>       0.00231481 </v>
   <v>       0.00231481 </v>
   <v>       0.00231481 </v>
   <v>       0.00231481 </v>
   <v>       0.00231481 </v>
   <v>       0.00231481 </v>
   <v>       0.00231481 </v>
   <v>       0.00231481 </v>
   <v>       0.00231481 </v>
   <v>       0.00231481 </v>
   <v>       0.00231481 </v>
   <v>       0.00231481 </v>
   <v>       0.00231481 </v>
   <v>       0.00231481 </v>
   <v>       0.00231481 </v>
   <v>       0.00231481 </v>
   <v>       0.00231481 </v>
   <v>       0.00231481 </v>
   <v>       0.00231481 </v>
   <v>       0.00231481 </v>
   <v>       0.00231481 </v>
   <v>       0.00231481 </v>
   <v>       0.00231481 </v>
   <v>       0.00231481 </v>
   <v>       0.00231481 </v>
   <v>       0.00231481 </v>
   <v>       0.00231481 </v>
   <v>       0.00231481 </v>
   <v>       0.00231481 </v>
   <v>       0.00231481 </v>
   <v>       0.00231481 </v>
   <v>       0.00231481 </v>
   <v>       0.00231481 </v>
   <v>       0.00231481 </v>
   <v>       0.00231481 </v>
   <v>       0.00231481 </v>
   <v>       0.00231481 </v>
   <v>       0.00231481 </v>
   <v>       0.00231481 </v>
   <v>       0.00231481 </v>
   <v>       0.00231481 </v>
   <v>       0.00231481 </v>
   <v>       0.00231481 </v>
   <v>       0.00231481 </v>
   <v>       0.00115741 </v>
   <v>       0.00231481 </v>
   <v>       0.00231481 </v>
   <v>       0.00231481 </v>
   <v>       0.00231481 </v>
   <v>       0.00231481 </v>
   <v>       0.00115741 </v>
   <v>       0.00115741 </v>
   <v>       0.00115741 </v>
   <v>       0.00115741 </v>
   <v>       0.00115741 </v>
   <v>       0.00115741 </v>
   <v>       0.00115741 </v>
   <v>       0.00115741 </v>
   <v>       0.00115741 </v>
   <v>       0.00115741 </v>
   <v>       0.00115741 </v>
   <v>       0.00115741 </v>
   <v>       0.00115741 </v>
   <v>       0.00231481 </v>
   <v>       0.00231481 </v>
   <v>       0.00231481 </v>
   <v>       0.00231481 </v>
   <v>       0.00231481 </v>
   <v>       0.00231481 </v>
   <v>       0.00231481 </v>
   <v>       0.00231481 </v>
   <v>       0.00231481 </v>
   <v>       0.00231481 </v>
   <v>       0.00231481 </v>
   <v>       0.00231481 </v>
   <v>       0.00231481 </v>
   <v>       0.00231481 </v>
   <v>       0.00231481 </v>
   <v>       0.00231481 </v>
   <v>       0.00231481 </v>
   <v>       0.00231481 </v>
   <v>       0.00231481 </v>
   <v>       0.00231481 </v>
   <v>       0.00231481 </v>
   <v>       0.00231481 </v>
   <v>       0.00231481 </v>
   <v>       0.00231481 </v>
   <v>       0.00231481 </v>
   <v>       0.00231481 </v>
   <v>       0.00231481 </v>
   <v>       0.00231481 </v>
   <v>       0.00231481 </v>
   <v>       0.00231481 </v>
   <v>       0.00231481 </v>
   <v>       0.00231481 </v>
   <v>       0.00231481 </v>
   <v>       0.00231481 </v>
   <v>       0.00231481 </v>
   <v>       0.00231481 </v>
   <v>       0.00231481 </v>
   <v>       0.00231481 </v>
   <v>       0.00231481 </v>
   <v>       0.00231481 </v>
   <v>       0.00231481 </v>
   <v>       0.00231481 </v>
   <v>       0.00231481 </v>
   <v>       0.00231481 </v>
   <v>       0.00231481 </v>
   <v>       0.00231481 </v>
   <v>       0.00231481 </v>
   <v>       0.00231481 </v>
   <v>       0.00231481 </v>
   <v>       0.00231481 </v>
   <v>       0.00231481 </v>
   <v>       0.00231481 </v>
   <v>       0.00231481 </v>
   <v>       0.00231481 </v>
   <v>       0.00231481 </v>
   <v>       0.00231481 </v>
   <v>       0.00231481 </v>
   <v>       0.00231481 </v>
   <v>       0.00231481 </v>
   <v>       0.00231481 </v>
   <v>       0.00231481 </v>
   <v>       0.00231481 </v>
   <v>       0.00231481 </v>
   <v>       0.00231481 </v>
   <v>       0.00231481 </v>
   <v>       0.00231481 </v>
   <v>       0.00231481 </v>
   <v>       0.00231481 </v>
   <v>       0.00231481 </v>
   <v>       0.00231481 </v>
   <v>       0.00231481 </v>
   <v>       0.00231481 </v>
   <v>       0.00231481 </v>
   <v>       0.00231481 </v>
   <v>       0.00231481 </v>
   <v>       0.00231481 </v>
   <v>       0.00231481 </v>
   <v>       0.00231481 </v>
   <v>       0.00231481 </v>
   <v>       0.00231481 </v>
   <v>       0.00231481 </v>
   <v>       0.00231481 </v>
   <v>       0.00231481 </v>
   <v>       0.00231481 </v>
   <v>       0.00115741 </v>
   <v>       0.00231481 </v>
   <v>       0.00231481 </v>
   <v>       0.00231481 </v>
   <v>       0.00231481 </v>
   <v>       0.00231481 </v>
   <v>       0.00115741 </v>
   <v>       0.00115741 </v>
   <v>       0.00115741 </v>
   <v>       0.00115741 </v>
   <v>       0.00115741 </v>
   <v>       0.00115741 </v>
   <v>       0.00115741 </v>
   <v>       0.00115741 </v>
   <v>       0.00115741 </v>
   <v>       0.00115741 </v>
   <v>       0.00115741 </v>
   <v>       0.00115741 </v>
   <v>       0.00115741 </v>
   <v>       0.00231481 </v>
   <v>       0.00231481 </v>
   <v>       0.00231481 </v>
   <v>       0.00231481 </v>
   <v>       0.00231481 </v>
   <v>       0.00231481 </v>
   <v>       0.00231481 </v>
   <v>       0.00231481 </v>
   <v>       0.00231481 </v>
   <v>       0.00231481 </v>
   <v>       0.00231481 </v>
   <v>       0.00231481 </v>
   <v>       0.00231481 </v>
   <v>       0.00231481 </v>
   <v>       0.00231481 </v>
   <v>       0.00231481 </v>
   <v>       0.00231481 </v>
   <v>       0.00231481 </v>
   <v>       0.00231481 </v>
   <v>       0.00231481 </v>
   <v>       0.00231481 </v>
   <v>       0.00231481 </v>
   <v>       0.00231481 </v>
   <v>       0.00231481 </v>
   <v>       0.00231481 </v>
   <v>       0.00231481 </v>
   <v>       0.00231481 </v>
   <v>       0.00231481 </v>
   <v>       0.00231481 </v>
   <v>       0.00231481 </v>
   <v>       0.00231481 </v>
   <v>       0.00231481 </v>
   <v>       0.00231481 </v>
   <v>       0.00231481 </v>
   <v>       0.00231481 </v>
   <v>       0.00231481 </v>
   <v>       0.00231481 </v>
   <v>       0.00231481 </v>
   <v>       0.00231481 </v>
   <v>       0.00231481 </v>
   <v>       0.00231481 </v>
   <v>       0.00231481 </v>
   <v>       0.00231481 </v>
   <v>       0.00231481 </v>
   <v>       0.00231481 </v>
   <v>       0.00231481 </v>
   <v>       0.00231481 </v>
   <v>       0.00231481 </v>
   <v>       0.00231481 </v>
   <v>       0.00231481 </v>
   <v>       0.00231481 </v>
   <v>       0.00231481 </v>
   <v>       0.00231481 </v>
   <v>       0.00231481 </v>
   <v>       0.00231481 </v>
   <v>       0.00231481 </v>
   <v>       0.00231481 </v>
   <v>       0.00231481 </v>
   <v>       0.00231481 </v>
   <v>       0.00231481 </v>
   <v>       0.00115741 </v>
   <v>       0.00231481 </v>
   <v>       0.00231481 </v>
   <v>       0.00231481 </v>
   <v>       0.00231481 </v>
   <v>       0.00231481 </v>
   <v>       0.00115741 </v>
   <v>       0.00115741 </v>
   <v>       0.00115741 </v>
   <v>       0.00115741 </v>
   <v>       0.00115741 </v>
   <v>       0.00115741 </v>
   <v>       0.00115741 </v>
   <v>       0.00115741 </v>
   <v>       0.00115741 </v>
   <v>       0.00115741 </v>
   <v>       0.00115741 </v>
   <v>       0.00115741 </v>
   <v>       0.00115741 </v>
   <v>       0.00231481 </v>
   <v>       0.00231481 </v>
   <v>       0.00231481 </v>
   <v>       0.00231481 </v>
   <v>       0.00231481 </v>
   <v>       0.00231481 </v>
   <v>       0.00231481 </v>
   <v>       0.00231481 </v>
   <v>       0.00231481 </v>
   <v>       0.00231481 </v>
   <v>       0.00231481 </v>
   <v>       0.00231481 </v>
   <v>       0.00231481 </v>
   <v>       0.00231481 </v>
   <v>       0.00231481 </v>
   <v>       0.00231481 </v>
   <v>       0.00231481 </v>
   <v>       0.00231481 </v>
   <v>       0.00231481 </v>
   <v>       0.00231481 </v>
   <v>       0.00231481 </v>
   <v>       0.00231481 </v>
   <v>       0.00231481 </v>
   <v>       0.00231481 </v>
   <v>       0.00231481 </v>
   <v>       0.00231481 </v>
   <v>       0.00231481 </v>
   <v>       0.00231481 </v>
   <v>       0.00231481 </v>
   <v>       0.00231481 </v>
   <v>       0.00231481 </v>
   <v>       0.00231481 </v>
   <v>       0.00231481 </v>
   <v>       0.00231481 </v>
   <v>       0.00231481 </v>
   <v>       0.00231481 </v>
   <v>       0.00115741 </v>
   <v>       0.00231481 </v>
   <v>       0.00231481 </v>
   <v>       0.00231481 </v>
   <v>       0.00231481 </v>
   <v>       0.00231481 </v>
   <v>       0.00115741 </v>
   <v>       0.00115741 </v>
   <v>       0.00115741 </v>
   <v>       0.00115741 </v>
   <v>       0.00115741 </v>
   <v>       0.00115741 </v>
   <v>       0.00115741 </v>
   <v>       0.00115741 </v>
   <v>       0.00115741 </v>
   <v>       0.00115741 </v>
   <v>       0.00115741 </v>
   <v>       0.00115741 </v>
   <v>       0.00115741 </v>
   <v>       0.00231481 </v>
   <v>       0.00231481 </v>
   <v>       0.00231481 </v>
   <v>       0.00231481 </v>
   <v>       0.00231481 </v>
   <v>       0.00231481 </v>
   <v>       0.00231481 </v>
   <v>       0.00231481 </v>
   <v>       0.00231481 </v>
   <v>       0.00231481 </v>
   <v>       0.00231481 </v>
   <v>       0.00231481 </v>
   <v>       0.00115741 </v>
   <v>       0.00231481 </v>
   <v>       0.00231481 </v>
   <v>       0.00231481 </v>
   <v>       0.00231481 </v>
   <v>       0.00231481 </v>
   <v>       0.00115741 </v>
   <v>       0.00057870 </v>
   <v>       0.00115741 </v>
   <v>       0.00115741 </v>
   <v>       0.00115741 </v>
   <v>       0.00115741 </v>
   <v>       0.00115741 </v>
   <v>       0.00057870 </v>
  </varray>
 </kpoints>
 <parameters>
  <separator name="general" >
   <i type="string" name="SYSTEM">unknown system</i>
   <i type="logical" name="LCOMPAT"> F  </i>
  </separator>
  <separator name="electronic" >
   <i type="string" name="PREC">accura</i>
   <i name="ENMAX">    520.00000000</i>
   <i name="ENAUG">    322.06900000</i>
   <i name="EDIFF">      0.00000001</i>
   <i type="int" name="IALGO">    38</i>
   <i type="int" name="IWAVPR">    11</i>
   <i type="int" name="NBANDS">     8</i>
   <i name="NELECT">      8.00000000</i>
   <i type="int" name="TURBO">     0</i>
   <i type="int" name="IRESTART">     0</i>
   <i type="int" name="NREBOOT">     0</i>
   <i type="int" name="NMIN">     0</i>
   <i name="EREF">      0.00000000</i>
   <separator name="electronic smearing" >
    <i type="int" name="ISMEAR">     0</i>
    <i name="SIGMA">      0.01000000</i>
    <i name="KSPACING">      0.50000000</i>
    <i type="logical" name="KGAMMA"> T  </i>
   </separator>
   <separator name="electronic projectors" >
    <i type="logical" name="LREAL"> F  </i>
    <v name="ROPT">      0.00000000</v>
    <i type="int" name="LMAXPAW">  -100</i>
    <i type="int" name="LMAXMIX">     2</i>
    <i type="logical" name="NLSPLINE"> F  </i>
   </separator>
   <separator name="electronic startup" >
    <i type="int" name="ISTART">     0</i>
    <i type="int" name="ICHARG">     2</i>
    <i type="int" name="INIWAV">     1</i>
   </separator>
   <separator name="electronic spin" >
    <i type="int" name="ISPIN">     1</i>
    <i type="logical" name="LNONCOLLINEAR"> F  </i>
    <v name="MAGMOM">      1.00000000      1.00000000</v>
    <i name="NUPDOWN">     -1.00000000</i>
    <i type="logical" name="LSORBIT"> F  </i>
    <v name="SAXIS">      0.00000000      0.00000000      1.00000000</v>
    <i type="logical" name="LSPIRAL"> F  </i>
    <v name="QSPIRAL">      0.00000000      0.00000000      0.00000000</v>
    <i type="logical" name="LZEROZ"> F  </i>
   </separator>
   <separator name="electronic exchange-correlation" >
    <i type="logical" name="LASPH"> F  </i>
    <i type="logical" name="LMETAGGA"> F  </i>
   </separator>
   <separator name="electronic convergence" >
    <i type="int" name="NELM">   100</i>
    <i type="int" name="NELMDL">    -5</i>
    <i type="int" name="NELMIN">     2</i>
    <i name="ENINI">    520.00000000</i>
    <separator name="electronic convergence detail" >
     <i type="logical" name="LDIAG"> T  </i>
     <i type="logical" name="LSUBROT"> F  </i>
     <i name="WEIMIN">      0.00100000</i>
     <i name="EBREAK">      0.00000000</i>
     <i name="DEPER">      0.30000000</i>
     <i type="int" name="NRMM">     4</i>
     <i name="TIME">      0.40000000</i>
    </separator>
   </separator>
   <separator name="electronic mixer" >
    <i name="AMIX">      0.40000000</i>
    <i name="BMIX">      1.00000000</i>
    <i name="AMIN">      0.10000000</i>
    <i name="AMIX_MAG">      1.60000000</i>
    <i name="BMIX_MAG">      1.00000000</i>
    <separator name="electronic mixer details" >
     <i type="int" name="IMIX">     4</i>
     <i type="logical" name="MIXFIRST"> F  </i>
     <i type="int" name="MAXMIX">   -45</i>
     <i name="WC">    100.00000000</i>
     <i type="int" name="INIMIX">     1</i>
     <i type="int" name="MIXPRE">     1</i>
     <i type="int" name="MREMOVE">     5</i>
    </separator>
   </separator>
   <separator name="electronic dipolcorrection" >
    <i type="logical" name="LDIPOL"> F  </i>
    <i type="logical" name="LMONO"> F  </i>
    <i type="int" name="IDIPOL">     0</i>
    <i name="EPSILON">      1.00000000</i>
    <v name="DIPOL">   -100.00000000   -100.00000000   -100.00000000</v>
    <i name="EFIELD">      0.00000000</i>
   </separator>
  </separator>
  <separator name="grids" >
   <i type="int" name="NGX">    30</i>
   <i type="int" name="NGY">    30</i>
   <i type="int" name="NGZ">    30</i>
   <i type="int" name="NGXF">    60</i>
   <i type="int" name="NGYF">    60</i>
   <i type="int" name="NGZF">    60</i>
   <i type="logical" name="ADDGRID"> F  </i>
  </separator>
  <separator name="ionic" >
   <i type="int" name="NSW">     1</i>
   <i type="int" name="IBRION">     8</i>
   <i type="int" name="MDALGO">     0</i>
   <i type="int" name="ISIF">     2</i>
   <i name="PSTRESS">      0.00000000</i>
   <i name="EDIFFG">      0.00000010</i>
   <i type="int" name="NFREE">     0</i>
   <i name="POTIM">      0.50000000</i>
   <i name="SMASS">     -3.00000000</i>
   <i name="SCALEE">      1.00000000</i>
  </separator>
  <separator name="ionic md" >
   <i name="TEBEG">      0.00010000</i>
   <i name="TEEND">      0.00010000</i>
   <i type="int" name="NBLOCK">     1</i>
   <i type="int" name="KBLOCK">     1</i>
   <i type="int" name="NPACO">   256</i>
   <i name="APACO">     16.00000000</i>
  </separator>
  <separator name="symmetry" >
   <i type="int" name="ISYM">     2</i>
   <i name="SYMPREC">      0.00000001</i>
  </separator>
  <separator name="dos" >
   <i type="int" name="LORBIT">     0</i>
   <v name="RWIGS">     -1.00000000</v>
   <i type="int" name="NEDOS">   301</i>
   <i name="EMIN">     10.00000000</i>
   <i name="EMAX">    -10.00000000</i>
   <i name="EFERMI">      0.00000000</i>
  </separator>
  <separator name="writing" >
   <i type="int" name="NWRITE">     2</i>
   <i type="logical" name="LWAVE"> F  </i>
   <i type="logical" name="LDOWNSAMPLE"> F  </i>
   <i type="logical" name="LCHARG"> T  </i>
   <i type="logical" name="LPARD"> F  </i>
   <i type="logical" name="LVTOT"> F  </i>
   <i type="logical" name="LVHAR"> F  </i>
   <i type="logical" name="LELF"> F  </i>
   <i type="logical" name="LOPTICS"> F  </i>
   <v name="STM">      0.00000000      0.00000000      0.00000000      0.00000000      0.00000000      0.00000000      0.00000000</v>
  </separator>
  <separator name="performance" >
   <i type="int" name="NPAR">     8</i>
   <i type="int" name="NSIM">     4</i>
   <i type="int" name="NBLK">    -1</i>
   <i type="logical" name="LPLANE"> T  </i>
   <i type="logical" name="LSCALAPACK"> T  </i>
   <i type="logical" name="LSCAAWARE"> F  </i>
   <i type="logical" name="LSCALU"> F  </i>
   <i type="logical" name="LASYNC"> F  </i>
   <i type="logical" name="LORBITALREAL"> F  </i>
  </separator>
  <separator name="miscellaneous" >
   <i type="int" name="IDIOT">     3</i>
   <i type="int" name="ISPECIAL">     0</i>
   <i type="logical" name="LMUSIC"> F  </i>
   <v name="POMASS">     28.08500000</v>
   <v name="DARWINR">      0.00000000</v>
   <v name="DARWINV">      1.00000000</v>
   <i type="logical" name="LCORR"> T  </i>
  </separator>
  <i type="logical" name="GGA_COMPAT"> T  </i>
  <i type="logical" name="LBERRY"> F  </i>
  <i type="int" name="ICORELEVEL">     0</i>
  <i type="logical" name="LDAU"> F  </i>
  <i type="int" name="I_CONSTRAINED_M">     0</i>
  <separator name="electronic exchange-correlation" >
   <i type="string" name="GGA">--</i>
   <i type="int" name="VOSKOWN">     0</i>
   <i type="logical" name="LHFCALC"> F  </i>
   <i type="string" name="PRECFOCK"></i>
   <i type="logical" name="LSYMGRAD"> F  </i>
   <i type="logical" name="LHFONE"> F  </i>
   <i type="logical" name="LRHFCALC"> F  </i>
   <i type="logical" name="LTHOMAS"> F  </i>
   <i type="logical" name="LMODELHF"> F  </i>
   <i name="ENCUT4O">     -1.00000000</i>
   <i type="int" name="EXXOEP">     0</i>
   <i type="int" name="FOURORBIT">     0</i>
   <i name="AEXX">      0.00000000</i>
   <i name="HFALPHA">      0.00000000</i>
   <i name="MCALPHA">      0.00000000</i>
   <i name="ALDAX">      1.00000000</i>
   <i name="AGGAX">      1.00000000</i>
   <i name="ALDAC">      1.00000000</i>
   <i name="AGGAC">      1.00000000</i>
   <i type="int" name="NKREDX">     1</i>
   <i type="int" name="NKREDY">     1</i>
   <i type="int" name="NKREDZ">     1</i>
   <i type="logical" name="SHIFTRED"> F  </i>
   <i type="logical" name="ODDONLY"> F  </i>
   <i type="logical" name="EVENONLY"> F  </i>
   <i type="int" name="LMAXFOCK">     0</i>
   <i type="int" name="NMAXFOCKAE">     0</i>
   <i type="logical" name="LFOCKAEDFT"> F  </i>
   <i name="HFSCREEN">      0.00000000</i>
   <i name="HFSCREENC">      0.00000000</i>
   <i type="int" name="NBANDSGWLOW">     0</i>
  </separator>
  <separator name="vdW DFT" >
   <i type="logical" name="LUSE_VDW"> F  </i>
   <i name="Zab_VDW">     -0.84910000</i>
   <i name="PARAM1">      0.12340000</i>
   <i name="PARAM2">      1.00000000</i>
   <i name="PARAM3">      0.00000000</i>
  </separator>
  <separator name="model GW" >
   <i type="int" name="MODEL_GW">     0</i>
   <i name="MODEL_EPS0">     12.09885527</i>
   <i name="MODEL_ALPHA">      1.00000000</i>
  </separator>
  <separator name="linear response parameters" >
   <i type="logical" name="LEPSILON"> T  </i>
   <i type="logical" name="LRPA"> F  </i>
   <i type="logical" name="LNABLA"> F  </i>
   <i type="logical" name="LVEL"> F  </i>
   <i type="int" name="KINTER">     0</i>
   <i name="CSHIFT">      0.10000000</i>
   <i name="OMEGAMAX">     -1.00000000</i>
   <i name="DEG_THRESHOLD">      0.00200000</i>
   <i name="RTIME">     -0.10000000</i>
   <i name="WPLASMAI">      0.00000000</i>
   <v name="DFIELD">      0.00000000      0.00000000      0.00000000</v>
   <v name="WPLASMA">      0.00000000      0.00000000      0.00000000      0.00000000      0.00000000      0.00000000      0.00000000      0.00000000      0.00000000</v>
  </separator>
  <separator name="orbital magnetization" >
   <i type="logical" name="NUCIND"> F  </i>
   <v name="MAGPOS">      0.00000000      0.00000000      0.00000000</v>
   <i type="logical" name="LNICSALL"> T  </i>
   <i type="logical" name="ORBITALMAG"> F  </i>
   <i type="logical" name="LMAGBLOCH"> F  </i>
   <i type="logical" name="LCHIMAG"> F  </i>
   <i type="logical" name="LGAUGE"> T  </i>
   <i type="int" name="MAGATOM">     0</i>
   <v name="MAGDIPOL">      0.00000000      0.00000000      0.00000000</v>
   <v name="AVECCONST">      0.00000000      0.00000000      0.00000000</v>
  </separator>
  <separator name="response functions" >
   <i type="logical" name="LADDER"> F  </i>
   <i type="logical" name="LRPAFORCE"> F  </i>
   <i type="logical" name="LFXC"> F  </i>
   <i type="logical" name="LHARTREE"> T  </i>
   <i type="int" name="IBSE">     0</i>
   <v type="int" name="KPOINT">    -1     0     0     0</v>
   <i type="logical" name="LTCTE"> F  </i>
   <i type="logical" name="LTETE"> F  </i>
   <i type="logical" name="LTRIPLET"> F  </i>
   <i type="logical" name="LFXCEPS"> F  </i>
   <i type="logical" name="LFXHEG"> F  </i>
   <i type="int" name="NATURALO">     2</i>
   <i type="logical" name="L2ORDER"> F  </i>
   <i type="logical" name="LMP2LT"> F  </i>
   <i type="logical" name="LUSEW"> F  </i>
   <i name="ENCUTGW">     -2.00000000</i>
   <i name="ENCUTGWSOFT">     -2.00000000</i>
   <i name="ENCUTLF">     -1.00000000</i>
   <i type="int" name="LMAXMP2">    -1</i>
   <i name="SCISSOR">      0.00000000</i>
   <i type="int" name="NOMEGA">     0</i>
   <i type="int" name="NOMEGAR">     0</i>
   <i type="int" name="NBANDSGW">    -1</i>
   <i type="int" name="NBANDSO">    -1</i>
   <i type="int" name="NBANDSV">    -1</i>
   <i type="int" name="NELM">   100</i>
   <i type="int" name="NELMHF">     1</i>
   <i type="int" name="DIM">     3</i>
   <i type="int" name="ANTIRES">     0</i>
   <i name="OMEGAMAX">    -30.00000000</i>
   <i name="OMEGAMIN">    -30.00000000</i>
   <i name="OMEGATL">   -200.00000000</i>
   <i type="int" name="OMEGAGRID">   140</i>
   <i name="CSHIFT">     -0.10000000</i>
   <i type="logical" name="SELFENERGY"> F  </i>
   <i type="logical" name="LSPECTRAL"> F  </i>
   <i type="logical" name="LSPECTRALGW"> F  </i>
   <i type="logical" name="LSINGLES"> F  </i>
   <i type="logical" name="LFERMIGW"> F  </i>
   <i type="logical" name="ODDONLYGW"> F  </i>
   <i type="logical" name="EVENONLYGW"> F  </i>
   <i type="int" name="NKREDLFX">     1</i>
   <i type="int" name="NKREDLFY">     1</i>
   <i type="int" name="NKREDLFZ">     1</i>
   <i type="int" name="MAXMEM">  2800</i>
   <i type="int" name="TELESCOPE">     0</i>
   <i type="int" name="TAUPAR">     1</i>
   <i type="int" name="OMEGAPAR">    -1</i>
   <i name="LAMBDA">      1.00000000</i>
  </separator>
  <separator name="External order field" >
   <i name="OFIELD_KAPPA">      0.00000000</i>
   <v name="OFIELD_K">      0.00000000      0.00000000      0.00000000</v>
   <i name="OFIELD_Q6_NEAR">      0.00000000</i>
   <i name="OFIELD_Q6_FAR">      0.00000000</i>
   <i name="OFIELD_A">      0.00000000</i>
  </separator>
 </parameters>
 <atominfo>
  <atoms>       2 </atoms>
  <types>       1 </types>
  <array name="atoms" >
   <dimension dim="1">ion</dimension>
   <field type="string">element</field>
   <field type="int">atomtype</field>
   <set>
    <rc><c>Si</c><c>   1</c></rc>
    <rc><c>Si</c><c>   1</c></rc>
   </set>
  </array>
  <array name="atomtypes" >
   <dimension dim="1">type</dimension>
   <field type="int">atomspertype</field>
   <field type="string">element</field>
   <field>mass</field>
   <field>valence</field>
   <field type="string">pseudopotential</field>
   <set>
    <rc><c>   2</c><c>Si</c><c>     28.08500000</c><c>      4.00000000</c><c>  PAW_PBE Si 05Jan2001                  </c></rc>
   </set>
  </array>
 </atominfo>
 <structure name="initialpos" >
  <crystal>
   <varray name="basis" >
    <v>      -2.72185098       0.00000000       2.72185098 </v>
    <v>       0.00000000       2.72185098       2.72185098 </v>
    <v>      -2.72185098       2.72185098       0.00000000 </v>
   </varray>
   <i name="volume">     40.32951755 </i>
   <varray name="rec_basis" >
    <v>      -0.18369852      -0.18369852       0.18369852 </v>
    <v>       0.18369852       0.18369852       0.18369852 </v>
    <v>      -0.18369852       0.18369852      -0.18369852 </v>
   </varray>
  </crystal>
  <varray name="positions" >
   <v>       0.24999994       0.25000010       0.25000002 </v>
   <v>       0.50000004       0.50000004       0.49999996 </v>
  </varray>
 </structure>
 <calculation>
  <scstep>
   <time name="dav">    7.86   13.32</time>
   <time name="total">    7.90   13.49</time>
   <energy>
    <i name="alphaZ">      3.33880818 </i>
    <i name="ewald">   -227.98822394 </i>
    <i name="hartreedc">    -11.11484184 </i>
    <i name="XCdc">    -18.63153668 </i>
    <i name="pawpsdc">    176.24759923 </i>
    <i name="pawaedc">   -141.06103558 </i>
    <i name="eentropy">     -0.00002088 </i>
    <i name="bandstr">     22.14278539 </i>
    <i name="atom">    206.13270273 </i>
    <i name="e_fr_energy">      9.06623662 </i>
    <i name="e_wo_entrp">      9.06625750 </i>
    <i name="e_0_energy">      9.06624706 </i>
   </energy>
  </scstep>
  <scstep>
   <time name="dav">   10.68   18.29</time>
   <time name="total">   10.69   18.31</time>
   <energy>
    <i name="e_fr_energy">    -10.76766452 </i>
    <i name="e_wo_entrp">    -10.76766452 </i>
    <i name="e_0_energy">    -10.76766452 </i>
   </energy>
  </scstep>
  <scstep>
   <time name="dav">    9.07   15.53</time>
   <time name="total">    9.08   15.55</time>
   <energy>
    <i name="e_fr_energy">    -11.02222384 </i>
    <i name="e_wo_entrp">    -11.02222384 </i>
    <i name="e_0_energy">    -11.02222384 </i>
   </energy>
  </scstep>
  <scstep>
   <time name="dav">   11.61   19.83</time>
   <time name="total">   11.63   19.86</time>
   <energy>
    <i name="e_fr_energy">    -11.02349264 </i>
    <i name="e_wo_entrp">    -11.02349264 </i>
    <i name="e_0_energy">    -11.02349264 </i>
   </energy>
  </scstep>
  <scstep>
   <time name="dav">    8.77   15.04</time>
   <time name="total">    9.01   15.45</time>
   <energy>
    <i name="e_fr_energy">    -11.02349375 </i>
    <i name="e_wo_entrp">    -11.02349375 </i>
    <i name="e_0_energy">    -11.02349375 </i>
   </energy>
  </scstep>
  <scstep>
   <time name="dav">    8.90   15.23</time>
   <time name="total">    9.18   15.72</time>
   <energy>
    <i name="e_fr_energy">    -10.90192846 </i>
    <i name="e_wo_entrp">    -10.90192846 </i>
    <i name="e_0_energy">    -10.90192846 </i>
   </energy>
  </scstep>
  <scstep>
   <time name="dav">    8.76   14.94</time>
   <time name="total">    9.04   15.44</time>
   <energy>
    <i name="e_fr_energy">    -10.84630986 </i>
    <i name="e_wo_entrp">    -10.84630986 </i>
    <i name="e_0_energy">    -10.84630986 </i>
   </energy>
  </scstep>
  <scstep>
   <time name="dav">    7.89   13.49</time>
   <time name="total">    8.14   13.94</time>
   <energy>
    <i name="e_fr_energy">    -10.84738458 </i>
    <i name="e_wo_entrp">    -10.84738458 </i>
    <i name="e_0_energy">    -10.84738458 </i>
   </energy>
  </scstep>
  <scstep>
   <time name="dav">   10.33   17.66</time>
   <time name="total">   10.63   18.18</time>
   <energy>
    <i name="e_fr_energy">    -10.84757827 </i>
    <i name="e_wo_entrp">    -10.84757827 </i>
    <i name="e_0_energy">    -10.84757827 </i>
   </energy>
  </scstep>
  <scstep>
   <time name="dav">    8.55   14.66</time>
   <time name="total">    8.83   15.16</time>
   <energy>
    <i name="e_fr_energy">    -10.84760406 </i>
    <i name="e_wo_entrp">    -10.84760406 </i>
    <i name="e_0_energy">    -10.84760406 </i>
   </energy>
  </scstep>
  <scstep>
   <time name="dav">   10.29   17.61</time>
   <time name="total">   10.56   18.21</time>
   <energy>
    <i name="e_fr_energy">    -10.84760378 </i>
    <i name="e_wo_entrp">    -10.84760378 </i>
    <i name="e_0_energy">    -10.84760378 </i>
   </energy>
  </scstep>
  <scstep>
   <time name="dav">    7.89   13.43</time>
   <time name="total">    8.16   13.95</time>
   <energy>
    <i name="e_fr_energy">    -10.84760410 </i>
    <i name="e_wo_entrp">    -10.84760410 </i>
    <i name="e_0_energy">    -10.84760410 </i>
   </energy>
  </scstep>
  <scstep>
   <time name="dav">   10.66   18.24</time>
   <time name="total">   10.94   18.75</time>
   <energy>
    <i name="e_fr_energy">    -10.84760412 </i>
    <i name="e_wo_entrp">    -10.84760412 </i>
    <i name="e_0_energy">    -10.84760412 </i>
   </energy>
  </scstep>
  <scstep>
   <time name="dav">    5.90   10.14</time>
   <time name="total">    5.95   10.27</time>
   <energy>
    <i name="alphaZ">      3.33880818 </i>
    <i name="ewald">   -227.98822394 </i>
    <i name="hartreedc">    -15.00717773 </i>
    <i name="XCdc">    -17.99778394 </i>
    <i name="pawpsdc">    855.41059011 </i>
    <i name="pawaedc">   -820.44137573 </i>
    <i name="eentropy">     -0.00000000 </i>
    <i name="bandstr">      5.70485620 </i>
    <i name="atom">    206.13270273 </i>
    <i name="e_fr_energy">    -10.84760412 </i>
    <i name="e_wo_entrp">    -10.84760412 </i>
    <i name="e_0_energy">    -10.84760412 </i>
   </energy>
  </scstep>
  <structure>
   <crystal>
    <varray name="basis" >
     <v>      -2.72185098       0.00000000       2.72185098 </v>
     <v>       0.00000000       2.72185098       2.72185098 </v>
     <v>      -2.72185098       2.72185098       0.00000000 </v>
    </varray>
    <i name="volume">     40.32951755 </i>
    <varray name="rec_basis" >
     <v>      -0.18369852      -0.18369852       0.18369852 </v>
     <v>       0.18369852       0.18369852       0.18369852 </v>
     <v>      -0.18369852       0.18369852      -0.18369852 </v>
    </varray>
   </crystal>
   <varray name="positions" >
    <v>       0.24999994       0.25000010       0.25000002 </v>
    <v>       0.50000004       0.50000004       0.49999996 </v>
   </varray>
  </structure>
  <varray name="forces" >
   <v>      -0.00000146      -0.00000422       0.00000146 </v>
   <v>       0.00000146       0.00000422      -0.00000146 </v>
  </varray>
  <varray name="stress" >
   <v>      12.53495659       0.00003622      -0.00012694 </v>
   <v>       0.00003622      12.53495701      -0.00003622 </v>
   <v>      -0.00012694      -0.00003622      12.53495659 </v>
  </varray>
  <energy>
   <i name="e_fr_energy">    -10.84760412 </i>
   <i name="e_wo_entrp">    -10.84760412 </i>
   <i name="e_0_energy">     -0.00000000 </i>
  </energy>
  <scstep>
   <time name="total">    2.42    4.10</time>
   <energy>
    <i name="e_fr_energy">     -1.57868982 </i>
    <i name="e_wo_entrp">     -1.57868982 </i>
    <i name="e_0_energy">     -1.57868982 </i>
   </energy>
  </scstep>
  <scstep>
   <time name="total">    2.26    3.81</time>
   <energy>
    <i name="e_fr_energy">     -1.61626815 </i>
    <i name="e_wo_entrp">     -1.61626815 </i>
    <i name="e_0_energy">     -1.61626815 </i>
   </energy>
  </scstep>
  <scstep>
   <time name="total">    2.41    4.12</time>
   <energy>
    <i name="e_fr_energy">     -1.61644575 </i>
    <i name="e_wo_entrp">     -1.61644575 </i>
    <i name="e_0_energy">     -1.61644575 </i>
   </energy>
  </scstep>
  <scstep>
   <time name="total">    2.27    3.81</time>
   <energy>
    <i name="e_fr_energy">     -1.61644781 </i>
    <i name="e_wo_entrp">     -1.61644781 </i>
    <i name="e_0_energy">     -1.61644781 </i>
   </energy>
  </scstep>
  <scstep>
   <time name="total">    2.31    3.91</time>
   <energy>
    <i name="e_fr_energy">     -1.61644785 </i>
    <i name="e_wo_entrp">     -1.61644785 </i>
    <i name="e_0_energy">     -1.61644785 </i>
   </energy>
  </scstep>
  <scstep>
   <time name="total">    1.61    2.75</time>
   <energy>
    <i name="e_fr_energy">     -1.61644785 </i>
    <i name="e_wo_entrp">     -1.61644785 </i>
    <i name="e_0_energy">     -1.61644785 </i>
   </energy>
  </scstep>
  <scstep>
   <time name="total">    2.48    4.24</time>
   <energy>
    <i name="e_fr_energy">     -1.35196755 </i>
    <i name="e_wo_entrp">     -1.35196755 </i>
    <i name="e_0_energy">     -1.35196755 </i>
   </energy>
  </scstep>
  <scstep>
   <time name="total">    2.29    3.86</time>
   <energy>
    <i name="e_fr_energy">     -1.39106072 </i>
    <i name="e_wo_entrp">     -1.39106072 </i>
    <i name="e_0_energy">     -1.39106072 </i>
   </energy>
  </scstep>
  <scstep>
   <time name="total">    2.27    3.88</time>
   <energy>
    <i name="e_fr_energy">     -1.39123574 </i>
    <i name="e_wo_entrp">     -1.39123574 </i>
    <i name="e_0_energy">     -1.39123574 </i>
   </energy>
  </scstep>
  <scstep>
   <time name="total">    2.32    3.95</time>
   <energy>
    <i name="e_fr_energy">     -1.39123790 </i>
    <i name="e_wo_entrp">     -1.39123790 </i>
    <i name="e_0_energy">     -1.39123790 </i>
   </energy>
  </scstep>
  <scstep>
   <time name="total">    2.31    3.95</time>
   <energy>
    <i name="e_fr_energy">     -1.39123794 </i>
    <i name="e_wo_entrp">     -1.39123794 </i>
    <i name="e_0_energy">     -1.39123794 </i>
   </energy>
  </scstep>
  <scstep>
   <time name="total">    1.56    2.66</time>
   <energy>
    <i name="e_fr_energy">     -1.39123795 </i>
    <i name="e_wo_entrp">     -1.39123795 </i>
    <i name="e_0_energy">     -1.39123795 </i>
   </energy>
  </scstep>
  <scstep>
   <time name="total">    2.38    4.01</time>
   <energy>
    <i name="e_fr_energy">     -1.12894667 </i>
    <i name="e_wo_entrp">     -1.12894667 </i>
    <i name="e_0_energy">     -1.12894667 </i>
   </energy>
  </scstep>
  <scstep>
   <time name="total">    2.38    4.04</time>
   <energy>
    <i name="e_fr_energy">     -1.16587366 </i>
    <i name="e_wo_entrp">     -1.16587366 </i>
    <i name="e_0_energy">     -1.16587366 </i>
   </energy>
  </scstep>
  <scstep>
   <time name="total">    2.31    3.94</time>
   <energy>
    <i name="e_fr_energy">     -1.16602605 </i>
    <i name="e_wo_entrp">     -1.16602605 </i>
    <i name="e_0_energy">     -1.16602605 </i>
   </energy>
  </scstep>
  <scstep>
   <time name="total">    2.37    4.02</time>
   <energy>
    <i name="e_fr_energy">     -1.16602802 </i>
    <i name="e_wo_entrp">     -1.16602802 </i>
    <i name="e_0_energy">     -1.16602802 </i>
   </energy>
  </scstep>
  <scstep>
   <time name="total">    2.44    4.18</time>
   <energy>
    <i name="e_fr_energy">     -1.16602806 </i>
    <i name="e_wo_entrp">     -1.16602806 </i>
    <i name="e_0_energy">     -1.16602806 </i>
   </energy>
  </scstep>
  <scstep>
   <time name="total">    1.51    2.61</time>
   <energy>
    <i name="e_fr_energy">     -1.16602806 </i>
    <i name="e_wo_entrp">     -1.16602806 </i>
    <i name="e_0_energy">     -1.16602806 </i>
   </energy>
  </scstep>
  <varray name="epsilon_rpa" >
   <v>      13.48459217      -0.00197750      -0.00197567 </v>
   <v>      -0.00197752      13.48459210       0.00197752 </v>
   <v>      -0.00197567       0.00197750      13.48459217 </v>
  </varray>
  <kpoints>
   <generation param="Gamma">
    <v type="int" name="divisions">      12       12       12 </v>
    <v name="usershift">      0.00000000       0.00000000       0.00000000 </v>
    <v name="genvec1">      0.08333333       0.00000000       0.00000000 </v>
    <v name="genvec2">      0.00000000       0.08333333      -0.00000000 </v>
    <v name="genvec3">     -0.00000000      -0.00000000       0.08333333 </v>
    <v name="shift">      0.00000000       0.00000000       0.00000000 </v>
   </generation>
   <varray name="kpointlist" >
    <v>       0.00000000       0.00000000       0.00000000 </v>
    <v>       0.08333333      -0.00000000       0.00000000 </v>
    <v>       0.16666667      -0.00000000       0.00000000 </v>
    <v>       0.25000000      -0.00000000      -0.00000000 </v>
    <v>       0.33333333      -0.00000000      -0.00000000 </v>
    <v>       0.41666667       0.00000000       0.00000000 </v>
    <v>       0.50000000      -0.00000000      -0.00000000 </v>
    <v>      -0.00000000       0.08333333       0.00000000 </v>
    <v>       0.08333333       0.08333333       0.00000000 </v>
    <v>       0.16666667       0.08333333       0.00000000 </v>
    <v>       0.25000000       0.08333333       0.00000000 </v>
    <v>       0.33333333       0.08333333      -0.00000000 </v>
    <v>       0.41666667       0.08333333       0.00000000 </v>
    <v>       0.50000000       0.08333333       0.00000000 </v>
    <v>      -0.41666667       0.08333333       0.00000000 </v>
    <v>      -0.33333333       0.08333333      -0.00000000 </v>
    <v>      -0.25000000       0.08333333       0.00000000 </v>
    <v>      -0.16666667       0.08333333       0.00000000 </v>
    <v>      -0.08333333       0.08333333       0.00000000 </v>
    <v>      -0.00000000       0.16666667       0.00000000 </v>
    <v>       0.08333333       0.16666667       0.00000000 </v>
    <v>       0.16666667       0.16666667       0.00000000 </v>
    <v>       0.25000000       0.16666667       0.00000000 </v>
    <v>       0.33333333       0.16666667       0.00000000 </v>
    <v>       0.41666667       0.16666667       0.00000000 </v>
    <v>       0.50000000       0.16666667       0.00000000 </v>
    <v>      -0.41666667       0.16666667      -0.00000000 </v>
    <v>      -0.33333333       0.16666667       0.00000000 </v>
    <v>      -0.25000000       0.16666667      -0.00000000 </v>
    <v>      -0.16666667       0.16666667       0.00000000 </v>
    <v>      -0.08333333       0.16666667       0.00000000 </v>
    <v>       0.00000000       0.25000000       0.00000000 </v>
    <v>       0.08333333       0.25000000       0.00000000 </v>
    <v>       0.16666667       0.25000000      -0.00000000 </v>
    <v>       0.25000000       0.25000000       0.00000000 </v>
    <v>       0.33333333       0.25000000       0.00000000 </v>
    <v>       0.41666667       0.25000000       0.00000000 </v>
    <v>       0.50000000       0.25000000       0.00000000 </v>
    <v>      -0.41666667       0.25000000       0.00000000 </v>
    <v>      -0.33333333       0.25000000       0.00000000 </v>
    <v>      -0.25000000       0.25000000       0.00000000 </v>
    <v>      -0.16666667       0.25000000      -0.00000000 </v>
    <v>      -0.08333333       0.25000000       0.00000000 </v>
    <v>      -0.00000000       0.33333333       0.00000000 </v>
    <v>       0.08333333       0.33333333       0.00000000 </v>
    <v>       0.16666667       0.33333333       0.00000000 </v>
    <v>       0.25000000       0.33333333       0.00000000 </v>
    <v>       0.33333333       0.33333333       0.00000000 </v>
    <v>       0.41666667       0.33333333       0.00000000 </v>
    <v>       0.50000000       0.33333333      -0.00000000 </v>
    <v>      -0.41666667       0.33333333       0.00000000 </v>
    <v>      -0.33333333       0.33333333       0.00000000 </v>
    <v>      -0.25000000       0.33333333       0.00000000 </v>
    <v>      -0.16666667       0.33333333       0.00000000 </v>
    <v>      -0.08333333       0.33333333      -0.00000000 </v>
    <v>       0.00000000       0.41666667       0.00000000 </v>
    <v>       0.08333333       0.41666667      -0.00000000 </v>
    <v>       0.16666667       0.41666667       0.00000000 </v>
    <v>       0.25000000       0.41666667       0.00000000 </v>
    <v>       0.33333333       0.41666667       0.00000000 </v>
    <v>       0.41666667       0.41666667       0.00000000 </v>
    <v>       0.50000000       0.41666667       0.00000000 </v>
    <v>      -0.41666667       0.41666667      -0.00000000 </v>
    <v>      -0.33333333       0.41666667       0.00000000 </v>
    <v>      -0.25000000       0.41666667       0.00000000 </v>
    <v>      -0.16666667       0.41666667       0.00000000 </v>
    <v>      -0.08333333       0.41666667       0.00000000 </v>
    <v>       0.00000000       0.50000000       0.00000000 </v>
    <v>       0.08333333       0.50000000       0.00000000 </v>
    <v>       0.16666667       0.50000000       0.00000000 </v>
    <v>       0.25000000       0.50000000       0.00000000 </v>
    <v>       0.33333333       0.50000000       0.00000000 </v>
    <v>       0.41666667       0.50000000       0.00000000 </v>
    <v>       0.50000000       0.50000000       0.00000000 </v>
    <v>       0.00000000       0.00000000       0.08333333 </v>
    <v>       0.08333333      -0.00000000       0.08333333 </v>
    <v>       0.16666667       0.00000000       0.08333333 </v>
    <v>       0.25000000       0.00000000       0.08333333 </v>
    <v>       0.33333333      -0.00000000       0.08333333 </v>
    <v>       0.41666667       0.00000000       0.08333333 </v>
    <v>       0.50000000       0.00000000       0.08333333 </v>
    <v>      -0.41666667       0.00000000       0.08333333 </v>
    <v>      -0.33333333      -0.00000000       0.08333333 </v>
    <v>      -0.25000000       0.00000000       0.08333333 </v>
    <v>      -0.16666667       0.00000000       0.08333333 </v>
    <v>      -0.08333333       0.00000000       0.08333333 </v>
    <v>       0.00000000       0.08333333       0.08333333 </v>
    <v>       0.08333333       0.08333333       0.08333333 </v>
    <v>       0.16666667       0.08333333       0.08333333 </v>
    <v>       0.25000000       0.08333333       0.08333333 </v>
    <v>       0.33333333       0.08333333       0.08333333 </v>
    <v>       0.41666667       0.08333333       0.08333333 </v>
    <v>       0.50000000       0.08333333       0.08333333 </v>
    <v>      -0.41666667       0.08333333       0.08333333 </v>
    <v>      -0.33333333       0.08333333       0.08333333 </v>
    <v>      -0.25000000       0.08333333       0.08333333 </v>
    <v>      -0.16666667       0.08333333       0.08333333 </v>
    <v>      -0.08333333       0.08333333       0.08333333 </v>
    <v>       0.00000000       0.16666667       0.08333333 </v>
    <v>       0.08333333       0.16666667       0.08333333 </v>
    <v>       0.16666667       0.16666667       0.08333333 </v>
    <v>       0.25000000       0.16666667       0.08333333 </v>
    <v>       0.33333333       0.16666667       0.08333333 </v>
    <v>       0.41666667       0.16666667       0.08333333 </v>
    <v>       0.50000000       0.16666667       0.08333333 </v>
    <v>      -0.41666667       0.16666667       0.08333333 </v>
    <v>      -0.33333333       0.16666667       0.08333333 </v>
    <v>      -0.25000000       0.16666667       0.08333333 </v>
    <v>      -0.16666667       0.16666667       0.08333333 </v>
    <v>      -0.08333333       0.16666667       0.08333333 </v>
    <v>       0.00000000       0.25000000       0.08333333 </v>
    <v>       0.08333333       0.25000000       0.08333333 </v>
    <v>       0.16666667       0.25000000       0.08333333 </v>
    <v>       0.25000000       0.25000000       0.08333333 </v>
    <v>       0.33333333       0.25000000       0.08333333 </v>
    <v>       0.41666667       0.25000000       0.08333333 </v>
    <v>       0.50000000       0.25000000       0.08333333 </v>
    <v>      -0.41666667       0.25000000       0.08333333 </v>
    <v>      -0.33333333       0.25000000       0.08333333 </v>
    <v>      -0.25000000       0.25000000       0.08333333 </v>
    <v>      -0.16666667       0.25000000       0.08333333 </v>
    <v>      -0.08333333       0.25000000       0.08333333 </v>
    <v>       0.00000000       0.33333333       0.08333333 </v>
    <v>       0.08333333       0.33333333       0.08333333 </v>
    <v>       0.16666667       0.33333333       0.08333333 </v>
    <v>       0.25000000       0.33333333       0.08333333 </v>
    <v>       0.33333333       0.33333333       0.08333333 </v>
    <v>       0.41666667       0.33333333       0.08333333 </v>
    <v>       0.50000000       0.33333333       0.08333333 </v>
    <v>      -0.41666667       0.33333333       0.08333333 </v>
    <v>      -0.33333333       0.33333333       0.08333333 </v>
    <v>      -0.25000000       0.33333333       0.08333333 </v>
    <v>      -0.16666667       0.33333333       0.08333333 </v>
    <v>      -0.08333333       0.33333333       0.08333333 </v>
[...]
       <r>   -0.8707    1.0000 </r>
       <r>    2.0169    1.0000 </r>
       <r>    2.6316    1.0000 </r>
       <r>    8.4362    0.0000 </r>
       <r>    8.8411    0.0000 </r>
       <r>   11.1177    0.0000 </r>
       <r>   14.0347    0.0000 </r>
      </set>
      <set comment="kpoint 466">
       <r>   -3.2612    1.0000 </r>
       <r>   -0.6403    1.0000 </r>
       <r>    1.8685    1.0000 </r>
       <r>    3.1444    1.0000 </r>
       <r>    8.9795    0.0000 </r>
       <r>    9.5137    0.0000 </r>
       <r>   10.4949    0.0000 </r>
       <r>   13.2194    0.0000 </r>
      </set>
      <set comment="kpoint 467">
       <r>   -3.4624    1.0000 </r>
       <r>   -0.7644    1.0000 </r>
       <r>    2.1917    1.0000 </r>
       <r>    3.7980    1.0000 </r>
       <r>    8.3735    0.0000 </r>
       <r>    9.4939    0.0000 </r>
       <r>   11.5454    0.0000 </r>
       <r>   12.4006    0.0000 </r>
      </set>
      <set comment="kpoint 468">
       <r>   -3.5691    1.0000 </r>
       <r>   -0.9794    1.0000 </r>
       <r>    2.7823    1.0000 </r>
       <r>    4.1733    1.0000 </r>
       <r>    7.9378    0.0000 </r>
       <r>    9.8062    0.0000 </r>
       <r>   10.1451    0.0000 </r>
       <r>   13.7045    0.0000 </r>
      </set>
      <set comment="kpoint 469">
       <r>   -3.6013    1.0000 </r>
       <r>   -1.0710    1.0000 </r>
       <r>    3.1711    1.0000 </r>
       <r>    4.1191    1.0000 </r>
       <r>    8.3204    0.0000 </r>
       <r>    8.8752    0.0000 </r>
       <r>   10.2382    0.0000 </r>
       <r>   13.8018    0.0000 </r>
      </set>
      <set comment="kpoint 470">
       <r>   -2.0366    1.0000 </r>
       <r>   -2.0366    1.0000 </r>
       <r>    2.9234    1.0000 </r>
       <r>    2.9234    1.0000 </r>
       <r>    6.4785    0.0000 </r>
       <r>    6.4785    0.0000 </r>
       <r>   15.8077    0.0000 </r>
       <r>   15.8077    0.0000 </r>
      </set>
      <set comment="kpoint 471">
       <r>   -2.6300    1.0000 </r>
       <r>   -1.3743    1.0000 </r>
       <r>    2.6050    1.0000 </r>
       <r>    2.9988    1.0000 </r>
       <r>    6.5406    0.0000 </r>
       <r>    7.1065    0.0000 </r>
       <r>   14.7881    0.0000 </r>
       <r>   14.8827    0.0000 </r>
      </set>
      <set comment="kpoint 472">
       <r>   -3.1067    1.0000 </r>
       <r>   -0.7930    1.0000 </r>
       <r>    2.1523    1.0000 </r>
       <r>    3.2194    1.0000 </r>
       <r>    6.8289    0.0000 </r>
       <r>    8.4731    0.0000 </r>
       <r>   13.1800    0.0000 </r>
       <r>   13.1971    0.0000 </r>
      </set>
      <set comment="kpoint 473">
       <r>   -3.4554    1.0000 </r>
       <r>   -0.6063    1.0000 </r>
       <r>    2.2461    1.0000 </r>
       <r>    3.5659    1.0000 </r>
       <r>    7.2821    0.0000 </r>
       <r>   10.1963    0.0000 </r>
       <r>   11.4662    0.0000 </r>
       <r>   11.6585    0.0000 </r>
      </set>
      <set comment="kpoint 474">
       <r>   -3.6821    1.0000 </r>
       <r>   -0.8212    1.0000 </r>
       <r>    2.9942    1.0000 </r>
       <r>    3.9910    1.0000 </r>
       <r>    7.7960    0.0000 </r>
       <r>    9.8515    0.0000 </r>
       <r>   10.3699    0.0000 </r>
       <r>   12.1560    0.0000 </r>
      </set>
      <set comment="kpoint 475">
       <r>   -3.8042    1.0000 </r>
       <r>   -1.0770    1.0000 </r>
       <r>    3.9825    1.0000 </r>
       <r>    4.3876    1.0000 </r>
       <r>    7.7826    0.0000 </r>
       <r>    9.0218    0.0000 </r>
       <r>    9.4485    0.0000 </r>
       <r>   13.6584    0.0000 </r>
      </set>
      <set comment="kpoint 476">
       <r>   -3.8417    1.0000 </r>
       <r>   -1.1786    1.0000 </r>
       <r>    4.5629    1.0000 </r>
       <r>    4.5629    1.0000 </r>
       <r>    7.2686    0.0000 </r>
       <r>    9.0973    0.0000 </r>
       <r>    9.0973    0.0000 </r>
       <r>   13.4741    0.0000 </r>
      </set>
     </set>
    </set>
   </array>
  </eigenvalues>
  <separator name="orbital magnetization" >
   <v name="MAGDIPOLOUT">      0.00000000      0.00000000      0.00000000</v>
  </separator>
  <dos>
   <i name="efermi">      5.80286985 </i>
   <total>
    <array>
     <dimension dim="1">gridpoints</dimension>
     <dimension dim="2">spin</dimension>
     <field>energy</field>
     <field>total</field>
     <field>integrated</field>
     <set>
      <set comment="spin 1">
       <r>    -7.2529     0.0000     0.0000 </r>
       <r>    -7.1724     0.0000     0.0000 </r>
       <r>    -7.0918     0.0000     0.0000 </r>
       <r>    -7.0113     0.0000     0.0000 </r>
       <r>    -6.9308     0.0000     0.0000 </r>
       <r>    -6.8502     0.0000     0.0000 </r>
       <r>    -6.7697     0.0000     0.0000 </r>
       <r>    -6.6892     0.0000     0.0000 </r>
       <r>    -6.6087     0.0000     0.0000 </r>
       <r>    -6.5281     0.0000     0.0000 </r>
       <r>    -6.4476     0.0000     0.0000 </r>
       <r>    -6.3671     0.0000     0.0000 </r>
       <r>    -6.2865     0.0000     0.0000 </r>
       <r>    -6.2060     0.0000     0.0000 </r>
       <r>    -6.1255     0.0144     0.0012 </r>
       <r>    -6.0450     0.1199     0.0108 </r>
       <r>    -5.9644     0.0810     0.0174 </r>
       <r>    -5.8839     0.1725     0.0312 </r>
       <r>    -5.8034     0.3609     0.0603 </r>
       <r>    -5.7228     0.0985     0.0683 </r>
       <r>    -5.6423     0.0862     0.0752 </r>
       <r>    -5.5618     0.4355     0.1103 </r>
       <r>    -5.4813     0.2544     0.1308 </r>
       <r>    -5.4007     0.3449     0.1586 </r>
       <r>    -5.3202     0.4599     0.1956 </r>
       <r>    -5.2397     0.0000     0.1956 </r>
       <r>    -5.1591     0.1725     0.2095 </r>
       <r>    -5.0786     1.0820     0.2966 </r>
       <r>    -4.9981     0.0000     0.2998 </r>
       <r>    -4.9176     0.4004     0.3320 </r>
       <r>    -4.8370     0.6344     0.3831 </r>
       <r>    -4.7565     0.1150     0.3924 </r>
       <r>    -4.6760     0.2899     0.4157 </r>
       <r>    -4.5954     0.6899     0.4757 </r>
       <r>    -4.5149     0.6960     0.5317 </r>
       <r>    -4.4344     0.9022     0.6044 </r>
       <r>    -4.3538     0.0000     0.6146 </r>
       <r>    -4.2733     0.3580     0.6434 </r>
       <r>    -4.1928     0.4151     0.6771 </r>
       <r>    -4.1123     0.6253     0.7275 </r>
       <r>    -4.0317     1.3710     0.8384 </r>
       <r>    -3.9512     0.0110     0.8400 </r>
       <r>    -3.8707     1.3397     0.9479 </r>
       <r>    -3.7901     1.0841     1.0375 </r>
       <r>    -3.7096     0.3446     1.0659 </r>
       <r>    -3.6291     0.3449     1.0938 </r>
       <r>    -3.5486     1.3655     1.2037 </r>
       <r>    -3.4680     0.5059     1.2456 </r>
       <r>    -3.3875     1.2189     1.3437 </r>
       <r>    -3.3070     0.6889     1.3992 </r>
       <r>    -3.2264     0.7732     1.4616 </r>
       <r>    -3.1459     0.3646     1.4912 </r>
       <r>    -3.0654     0.6674     1.5451 </r>
       <r>    -2.9849     0.1371     1.5562 </r>
       <r>    -2.9043     1.7434     1.6966 </r>
       <r>    -2.8238     0.0000     1.7257 </r>
       <r>    -2.7433     0.0000     1.7257 </r>
       <r>    -2.6627     0.1705     1.7394 </r>
       <r>    -2.5822     0.6891     1.8090 </r>
       <r>    -2.5017     0.6899     1.8646 </r>
       <r>    -2.4212     0.6524     1.9171 </r>
       <r>    -2.3406     0.3449     1.9479 </r>
       <r>    -2.2601     0.0000     1.9479 </r>
       <r>    -2.1796     0.0786     1.9542 </r>
       <r>    -2.0990     0.0939     1.9618 </r>
       <r>    -2.0185     0.0869     1.9688 </r>
       <r>    -1.9380     0.3452     1.9966 </r>
       <r>    -1.8575     0.5154     2.0381 </r>
       <r>    -1.7769     0.0685     2.0437 </r>
       <r>    -1.6964     0.1039     2.0521 </r>
       <r>    -1.6159     0.0000     2.0521 </r>
       <r>    -1.5353     0.0000     2.0521 </r>
       <r>    -1.4548     0.3448     2.0798 </r>
       <r>    -1.3743     0.5982     2.1280 </r>
       <r>    -1.2937     0.6085     2.2194 </r>
       <r>    -1.2132     0.3365     2.2465 </r>
       <r>    -1.1327     0.3892     2.2779 </r>
       <r>    -1.0522     1.0238     2.3614 </r>
       <r>    -0.9716     1.5526     2.4874 </r>
       <r>    -0.8911     1.6488     2.6240 </r>
       <r>    -0.8106     0.6688     2.6801 </r>
       <r>    -0.7300     1.1492     2.7744 </r>
       <r>    -0.6495     0.4954     2.8143 </r>
       <r>    -0.5690     1.5787     2.9415 </r>
       <r>    -0.4885     0.3449     2.9757 </r>
       <r>    -0.4079     0.3449     3.0035 </r>
       <r>    -0.3274     0.0093     3.0042 </r>
       <r>    -0.2469     1.3295     3.1113 </r>
       <r>    -0.1663     0.3440     3.1701 </r>
       <r>    -0.0858     0.0000     3.1701 </r>
       <r>    -0.0053     0.3448     3.1979 </r>
       <r>     0.0752     0.3272     3.2243 </r>
       <r>     0.1558     1.3798     3.3368 </r>
       <r>     0.2363     0.0000     3.3368 </r>
       <r>     0.3168     0.4298     3.3714 </r>
       <r>     0.3974     0.0000     3.3785 </r>
       <r>     0.4779     0.1150     3.3877 </r>
       <r>     0.5584     0.6907     3.4434 </r>
       <r>     0.6389     0.3440     3.4711 </r>
       <r>     0.7195     0.0000     3.4711 </r>
       <r>     0.8000     0.5683     3.5168 </r>
       <r>     0.8805     0.0000     3.5336 </r>
       <r>     0.9611     0.6899     3.5891 </r>
       <r>     1.0416     0.0000     3.5891 </r>
       <r>     1.1221     0.3449     3.6169 </r>
       <r>     1.2027     0.0000     3.6169 </r>
       <r>     1.2832     0.0000     3.6169 </r>
       <r>     1.3637     0.7624     3.6783 </r>
       <r>     1.4442     0.4449     3.7141 </r>
       <r>     1.5248     0.0052     3.7145 </r>
       <r>     1.6053     1.7194     3.8530 </r>
       <r>     1.6858     0.3475     3.8810 </r>
       <r>     1.7664     0.8504     3.9495 </r>
       <r>     1.8469     2.2225     4.1284 </r>
       <r>     1.9274     1.0646     4.2258 </r>
       <r>     2.0079     0.3499     4.2540 </r>
       <r>     2.0885     1.3443     4.3623 </r>
       <r>     2.1690     0.6871     4.4176 </r>
       <r>     2.2495     1.3567     4.5271 </r>
       <r>     2.3301     1.4456     4.6527 </r>
       <r>     2.4106     0.9636     4.7303 </r>
       <r>     2.4911     0.6638     4.7838 </r>
       <r>     2.5716     0.6869     4.8412 </r>
       <r>     2.6522     1.4847     4.9610 </r>
       <r>     2.7327     1.1974     5.0575 </r>
       <r>     2.8132     1.3019     5.1685 </r>
       <r>     2.8938     1.3255     5.2867 </r>
       <r>     2.9743     1.1109     5.3762 </r>
       <r>     3.0548     1.8960     5.5289 </r>
       <r>     3.1353     0.2783     5.5513 </r>
       <r>     3.2159     3.2539     5.8134 </r>
       <r>     3.2964     0.2385     5.8484 </r>
       <r>     3.3769     2.7039     6.0661 </r>
       <r>     3.4575     0.7611     6.1348 </r>
       <r>     3.5380     0.6637     6.1889 </r>
       <r>     3.6185     1.1055     6.2800 </r>
       <r>     3.6990     2.0807     6.4487 </r>
       <r>     3.7796     0.7103     6.5123 </r>
       <r>     3.8601     1.6021     6.6466 </r>
       <r>     3.9406     1.0842     6.7436 </r>
       <r>     4.0212     0.8507     6.8220 </r>
       <r>     4.1017     0.9240     6.8964 </r>
       <r>     4.1822     2.2572     7.0782 </r>
       <r>     4.2628     1.6222     7.2118 </r>
       <r>     4.3433     0.0081     7.2125 </r>
       <r>     4.4238     1.0348     7.2958 </r>
       <r>     4.5043     2.2249     7.4750 </r>
       <r>     4.5849     0.6275     7.5262 </r>
       <r>     4.6654     0.5446     7.5705 </r>
       <r>     4.7459     0.0055     7.5734 </r>
       <r>     4.8265     1.4316     7.6886 </r>
       <r>     4.9070     0.7780     7.7513 </r>
       <r>     4.9875     0.3546     7.7820 </r>
       <r>     5.0680     0.7013     7.8385 </r>
       <r>     5.1486     0.3764     7.8694 </r>
       <r>     5.2291     0.4290     7.9039 </r>
       <r>     5.3096     0.1512     7.9161 </r>
       <r>     5.3902     0.1881     7.9377 </r>
       <r>     5.4707     0.3284     7.9641 </r>
       <r>     5.5512     0.0000     7.9641 </r>
       <r>     5.6317     0.2789     7.9866 </r>
       <r>     5.7123     0.1231     7.9965 </r>
       <r>     5.7928     0.0431     8.0000 </r>
       <r>     5.8733     0.0000     8.0000 </r>
       <r>     5.9539     0.0000     8.0000 </r>
       <r>     6.0344     0.0000     8.0000 </r>
       <r>     6.1149     0.0000     8.0000 </r>
       <r>     6.1954     0.0000     8.0000 </r>
       <r>     6.2760     0.0000     8.0000 </r>
       <r>     6.3565     0.0856     8.0069 </r>
       <r>     6.4370     0.0000     8.0069 </r>
       <r>     6.5176     0.1726     8.0208 </r>
       <r>     6.5981     0.3447     8.0486 </r>
       <r>     6.6786     0.3451     8.0764 </r>
       <r>     6.7592     0.1722     8.0903 </r>
       <r>     6.8397     0.3228     8.1163 </r>
       <r>     6.9202     0.0863     8.1250 </r>
       <r>     7.0007     0.8727     8.1953 </r>
       <r>     7.0813     0.3077     8.2204 </r>
       <r>     7.1618     0.9338     8.2956 </r>
       <r>     7.2423     0.3449     8.3264 </r>
       <r>     7.3229     1.1655     8.4202 </r>
       <r>     7.4034     0.2143     8.4375 </r>
       <r>     7.4839     0.8890     8.5091 </r>
       <r>     7.5644     1.5863     8.6479 </r>
       <r>     7.6450     0.8573     8.7172 </r>
       <r>     7.7255     0.2566     8.7521 </r>
       <r>     7.8060     1.6775     8.8943 </r>
       <r>     7.8866     1.2356     8.9960 </r>
       <r>     7.9671     1.2991     9.1088 </r>
       <r>     8.0476     1.0957     9.1970 </r>
       <r>     8.1281     1.1950     9.2956 </r>
       <r>     8.2087     1.1598     9.4128 </r>
       <r>     8.2892     0.6347     9.4678 </r>
       <r>     8.3697     1.9529     9.6306 </r>
       <r>     8.4503     2.3783     9.8458 </r>
       <r>     8.5308     1.1959     9.9563 </r>
       <r>     8.6113     0.7472    10.0263 </r>
       <r>     8.6918     0.1725    10.0451 </r>
       <r>     8.7724     1.6997    10.1820 </r>
       <r>     8.8529     0.9597    10.2661 </r>
       <r>     8.9334     0.9380    10.3429 </r>
       <r>     9.0140     3.0929    10.5929 </r>
       <r>     9.0945     1.3703    10.7060 </r>
       <r>     9.1750     1.9515    10.8634 </r>
       <r>     9.2556     1.1019    10.9522 </r>
       <r>     9.3361     2.2357    11.1503 </r>
       <r>     9.4166     1.2516    11.2511 </r>
       <r>     9.4971     2.0007    11.4122 </r>
       <r>     9.5777     1.0992    11.5263 </r>
       <r>     9.6582     0.8380    11.5938 </r>
       <r>     9.7387     0.9181    11.6689 </r>
       <r>     9.8193     1.3068    11.7741 </r>
       <r>     9.8998     1.2756    11.8807 </r>
       <r>     9.9803     2.2505    12.0715 </r>
       <r>    10.0608     1.9000    12.2382 </r>
       <r>    10.1414     0.2752    12.2652 </r>
       <r>    10.2219     0.7795    12.3280 </r>
       <r>    10.3024     2.1826    12.5163 </r>
       <r>    10.3830     1.5133    12.6529 </r>
       <r>    10.4635     0.9348    12.7292 </r>
       <r>    10.5440     1.1704    12.8234 </r>
       <r>    10.6245     1.2386    12.9236 </r>
       <r>    10.7051     1.7156    13.0625 </r>
       <r>    10.7856     0.5624    13.1078 </r>
       <r>    10.8661     2.0844    13.2756 </r>
       <r>    10.9467     0.1123    13.2847 </r>
       <r>    11.0272     0.2320    13.3034 </r>
       <r>    11.1077     1.1748    13.3980 </r>
       <r>    11.1882     1.2441    13.4982 </r>
       <r>    11.2688     1.2571    13.5997 </r>
       <r>    11.3493     0.6966    13.6558 </r>
       <r>    11.4298     0.8539    13.7245 </r>
       <r>    11.5104     2.1176    13.8951 </r>
       <r>    11.5909     0.8624    13.9745 </r>
       <r>    11.6714     1.3681    14.0847 </r>
       <r>    11.7519     1.2843    14.1891 </r>
       <r>    11.8325     1.8649    14.3402 </r>
       <r>    11.9130     1.1508    14.4328 </r>
       <r>    11.9935     1.0332    14.5162 </r>
       <r>    12.0741     0.6880    14.5718 </r>
       <r>    12.1546     0.1444    14.5834 </r>
       <r>    12.2351     1.0463    14.6676 </r>
       <r>    12.3157     0.6302    14.7245 </r>
       <r>    12.3962     0.4836    14.7635 </r>
       <r>    12.4767     1.1853    14.8626 </r>
       <r>    12.5572     1.0384    14.9476 </r>
       <r>    12.6378     0.4497    14.9838 </r>
       <r>    12.7183     0.0000    14.9838 </r>
       <r>    12.7988     1.0978    15.0722 </r>
       <r>    12.8794     1.0350    15.1644 </r>
       <r>    12.9599     0.6896    15.2199 </r>
       <r>    13.0404     0.8372    15.2873 </r>
       <r>    13.1209     0.0000    15.2894 </r>
       <r>    13.2015     0.9600    15.3667 </r>
       <r>    13.2820     1.7081    15.5116 </r>
       <r>    13.3625     1.2921    15.6157 </r>
       <r>    13.4431     0.0000    15.6227 </r>
       <r>    13.5236     0.0575    15.6273 </r>
       <r>    13.6041     0.2158    15.6447 </r>
       <r>    13.6846     0.3458    15.6737 </r>
       <r>    13.7652     0.4854    15.7128 </r>
       <r>    13.8457     0.5485    15.7569 </r>
       <r>    13.9262     0.0000    15.7569 </r>
       <r>    14.0068     0.0000    15.7569 </r>
       <r>    14.0873     0.3449    15.7847 </r>
       <r>    14.1678     0.0000    15.7847 </r>
       <r>    14.2483     0.1381    15.7958 </r>
       <r>    14.3289     0.6169    15.8483 </r>
       <r>    14.4094     0.0000    15.8542 </r>
       <r>    14.4899     0.0000    15.8542 </r>
       <r>    14.5705     0.5174    15.8958 </r>
       <r>    14.6510     0.3447    15.9236 </r>
       <r>    14.7315     0.0000    15.9236 </r>
       <r>    14.8121     0.5173    15.9653 </r>
       <r>    14.8926     0.3167    15.9908 </r>
       <r>    14.9731     0.0000    15.9931 </r>
       <r>    15.0536     0.0000    15.9931 </r>
       <r>    15.1342     0.0000    15.9931 </r>
       <r>    15.2147     0.0000    15.9931 </r>
       <r>    15.2952     0.0000    15.9931 </r>
       <r>    15.3758     0.0000    15.9931 </r>
       <r>    15.4563     0.0000    15.9931 </r>
       <r>    15.5368     0.0000    15.9931 </r>
       <r>    15.6173     0.0000    15.9931 </r>
       <r>    15.6979     0.0000    15.9931 </r>
       <r>    15.7784     0.0000    15.9931 </r>
       <r>    15.8589     0.0862    16.0000 </r>
       <r>    15.9395     0.0000    16.0000 </r>
       <r>    16.0200     0.0000    16.0000 </r>
       <r>    16.1005     0.0000    16.0000 </r>
       <r>    16.1810     0.0000    16.0000 </r>
       <r>    16.2616     0.0000    16.0000 </r>
       <r>    16.3421     0.0000    16.0000 </r>
       <r>    16.4226     0.0000    16.0000 </r>
       <r>    16.5032     0.0000    16.0000 </r>
       <r>    16.5837     0.0000    16.0000 </r>
       <r>    16.6642     0.0000    16.0000 </r>
       <r>    16.7447     0.0000    16.0000 </r>
       <r>    16.8253     0.0000    16.0000 </r>
       <r>    16.9058     0.0000    16.0000 </r>
      </set>
     </set>
    </array>
   </total>
  </dos>
 </calculation>
 <structure name="finalpos" >
  <crystal>
   <varray name="basis" >
    <v>      -2.72185098       0.00000000       2.72185098 </v>
    <v>       0.00000000       2.72185098       2.72185098 </v>
    <v>      -2.72185098       2.72185098       0.00000000 </v>
   </varray>
   <i name="volume">     40.32951755 </i>
   <varray name="rec_basis" >
    <v>      -0.18369852      -0.18369852       0.18369852 </v>
    <v>       0.18369852       0.18369852       0.18369852 </v>
    <v>      -0.18369852       0.18369852      -0.18369852 </v>
   </varray>
  </crystal>
  <varray name="positions" >
   <v>       0.24999994       0.25000010       0.25000002 </v>
   <v>       0.50000004       0.50000004       0.49999996 </v>
  </varray>
 </structure>
</modeling>
