 
             +---------------------------------------------------+
             |                                                   |
             |                   WANNIER90                       |
             |                                                   |
             +---------------------------------------------------+
             |                                                   |
             |        Welcome to the Maximally-Localized         |
             |        Generalized Wannier Functions code         |
             |            http://www.wannier.org                 |
             |                                                   |
             |                                                   |
             |  Wannier90 Developer Group:                       |
             |    Giovanni Pizzi    (EPFL)                       |
             |    Valerio Vitale    (Cambridge)                  |
             |    David Vanderbilt  (Rutgers University)         |
             |    Nicola Marzari    (EPFL)                       |
             |    Ivo Souza         (Universidad del Pais Vasco) |
             |    Arash A. Mostofi  (Imperial College London)    |
             |    Jonathan R. Yates (University of Oxford)       |
             |                                                   |
             |  For the full list of Wannier90 3.x authors,      |
             |  please check the code documentation and the      |
             |  README on the GitHub page of the code            |
             |                                                   |
             |                                                   |
             |  Please cite                                      |
             |                                                   |
             |  [ref] "Wannier90 as a community code:            |
             |        new features and applications",            |
             |        G. Pizzi et al., J. Phys. Cond. Matt. 32,  |
             |        165902 (2020).                             |
             |        http://doi.org/10.1088/1361-648X/ab51ff    |
             |                                                   |
             |  in any publications arising from the use of      |
             |  this code. For the method please cite            |
             |                                                   |
             |  [ref] "Maximally Localized Generalised Wannier   |
             |         Functions for Composite Energy Bands"     |
             |         N. Marzari and D. Vanderbilt              |
             |         Phys. Rev. B 56 12847 (1997)              |
             |                                                   |
             |  [ref] "Maximally Localized Wannier Functions     |
             |         for Entangled Energy Bands"               |
             |         I. Souza, N. Marzari and D. Vanderbilt    |
             |         Phys. Rev. B 65 035109 (2001)             |
             |                                                   |
             |                                                   |
             | Copyright (c) 1996-2020                           |
             |        The Wannier90 Developer Group and          |
             |        individual contributors                    |
             |                                                   |
             |      Release: 3.1.0        5th March    2020      |
             |                                                   |
             | This program is free software; you can            |
             | redistribute it and/or modify it under the terms  |
             | of the GNU General Public License as published by |
             | the Free Software Foundation; either version 2 of |
             | the License, or (at your option) any later version|
             |                                                   |
             | This program is distributed in the hope that it   |
             | will be useful, but WITHOUT ANY WARRANTY; without |
             | even the implied warranty of MERCHANTABILITY or   |
             | FITNESS FOR A PARTICULAR PURPOSE. See the GNU     |
             | General Public License for more details.          |
             |                                                   |
             | You should have received a copy of the GNU General|
             | Public License along with this program; if not,   |
             | write to the Free Software Foundation, Inc.,      |
             | 675 Mass Ave, Cambridge, MA 02139, USA.           |
             |                                                   |
             +---------------------------------------------------+
             |    Execution started on  8Apr2024 at 15:26:50     |
             +---------------------------------------------------+
 
 ******************************************************************************
 * -> Using CODATA 2006 constant values                                       *
 *    (http://physics.nist.gov/cuu/Constants/index.html)                      *
 * -> Using Bohr value from CODATA                                            *
 ******************************************************************************
 

 Running in parallel on  16 CPUs

 
                                    ------
                                    SYSTEM
                                    ------
 
                              Lattice Vectors (Ang)
                    a_1     2.430122   6.432632   0.000000
                    a_2    -2.430122   6.432632   0.000000
                    a_3     0.000000   0.000000   4.833636
 
                   Unit Cell Volume:     151.11957  (Ang^3)
 
                        Reciprocal-Space Vectors (Ang^-1)
                    b_1     1.292772   0.488384   0.000000
                    b_2    -1.292772   0.488384   0.000000
                    b_3     0.000000   0.000000   1.299888
  
 *----------------------------------------------------------------------------*
 |   Site       Fractional Coordinate          Cartesian Coordinate (Ang)     |
 +----------------------------------------------------------------------------+
 | In   1   0.60327   0.60327   0.75000   |    0.00000   7.76119   3.62523    |
 | In   2   0.39673   0.39673   0.25000   |   -0.00000   5.10408   1.20841    |
 | I    1   0.85390   0.85390   0.75000   |    0.00000  10.98570   3.62523    |
 | I    2   0.14610   0.14610   0.25000   |   -0.00000   1.87957   1.20841    |
 *----------------------------------------------------------------------------*
                                ------------
                                K-POINT GRID
                                ------------
  
             Grid size =  8 x  8 x 12      Total points =  768
  
  
 *---------------------------------- MAIN ------------------------------------*
 |  Number of Wannier Functions               :                 8             |
 |  Number of Objective Wannier Functions     :                 8             |
 |  Number of input Bloch states              :                 8             |
 |  Output verbosity (1=low, 5=high)          :                 1             |
 |  Timing Level (1=low, 5=high)              :                 1             |
 |  Optimisation (0=memory, 3=speed)          :                 3             |
 |  Length Unit                               :               Ang             |
 |  Post-processing setup (write *.nnkp)      :                 F             |
 |  Using Gamma-only branch of algorithms     :                 F             |
 *----------------------------------------------------------------------------*
 *------------------------------- WANNIERISE ---------------------------------*
 |  Total number of iterations                :               500             |
 |  Number of CG steps before reset           :                 5             |
 |  Trial step length for line search         :             2.000             |
 |  Convergence tolerence                     :         0.100E-09             |
 |  Convergence window                        :                -1             |
 |  Iterations between writing output         :                 1             |
 |  Iterations between backing up to disk     :               100             |
 |  Write r^2_nm to file                      :                 F             |
 |  Write xyz WF centres to file              :                 F             |
 |  Write on-site energies <0n|H|0n> to file  :                 F             |
 |  Use guiding centre to control phases      :                 F             |
 |  Use phases for initial projections        :                 F             |
 *----------------------------------------------------------------------------*
 Time to read parameters        0.058 (sec)

 *---------------------------------- K-MESH ----------------------------------*
 +----------------------------------------------------------------------------+
 |                    Distance to Nearest-Neighbour Shells                    |
 |                    ------------------------------------                    |
 |          Shell             Distance (Ang^-1)          Multiplicity         |
 |          -----             -----------------          ------------         |
 |             1                   0.108324                      2            |
 |             2                   0.122096                      2            |
 |             3                   0.163222                      4            |
 |             4                   0.172743                      4            |
 |             5                   0.203898                      8            |
 |             6                   0.216648                      2            |
 |             7                   0.244192                      2            |
 |             8                   0.244244                      4            |
 |             9                   0.248684                      4            |
 |            10                   0.267140                      4            |
 |            11                   0.267188                      8            |
 |            12                   0.277086                      8            |
 |            13                   0.323193                      2            |
 |            14                   0.324972                      2            |
 |            15                   0.326445                      4            |
 |            16                   0.326483                      8            |
 |            17                   0.340863                      4            |
 |            18                   0.345376                      4            |
 |            19                   0.345487                      4            |
 |            20                   0.347152                      4            |
 |            21                   0.361965                      8            |
 |            22                   0.362071                      8            |
 |            23                   0.366288                      2            |
 |            24                   0.368031                      8            |
 |            25                   0.381970                      4            |
 |            26                   0.389089                      4            |
 |            27                   0.405072                      4            |
 |            28                   0.406493                      4            |
 |            29                   0.406524                      8            |
 |            30                   0.407702                      8            |
 |            31                   0.407796                      8            |
 |            32                   0.419306                      8            |
 |            33                   0.425562                      4            |
 |            34                   0.433296                      2            |
 |            35                   0.450170                      4            |
 |            36                   0.456869                      4            |
 +----------------------------------------------------------------------------+
 | The b-vectors are chosen automatically                                     |
 | SVD found small singular value, Rejecting this shell and trying the next   |
 | The following shells are used:   1,  2,  4                                 |
 +----------------------------------------------------------------------------+
 |                        Shell   # Nearest-Neighbours                        |
 |                        -----   --------------------                        |
 |                          1               2                                 |
 |                          2               2                                 |
 |                          4               4                                 |
 +----------------------------------------------------------------------------+
 | Completeness relation is fully satisfied [Eq. (B1), PRB 56, 12847 (1997)]  |
 +----------------------------------------------------------------------------+
 |                  b_k Vectors (Ang^-1) and Weights (Ang^2)                  |
 |                  ----------------------------------------                  |
 |            No.         b_k(x)      b_k(y)      b_k(z)        w_b           |
 |            ---        --------------------------------     --------        |
 |             1         0.000000    0.000000    0.108324    42.610897        |
 |             2         0.000000    0.000000   -0.108324    42.610897        |
 |             3         0.000000    0.122096    0.000000    28.753543        |
 |             4         0.000000   -0.122096    0.000000    28.753543        |
 |             5        -0.161596    0.061048    0.000000     9.573625        |
 |             6         0.161596    0.061048    0.000000     9.573625        |
 |             7         0.161596   -0.061048    0.000000     9.573625        |
 |             8        -0.161596   -0.061048    0.000000     9.573625        |
 +----------------------------------------------------------------------------+
 |                           b_k Directions (Ang^-1)                          |
 |                           -----------------------                          |
 |            No.           x           y           z                         |
 |            ---        --------------------------------                     |
 |             1         0.000000    0.000000    0.108324                     |
 |             2         0.000000    0.122096    0.000000                     |
 |             3        -0.161596    0.061048    0.000000                     |
 |             4         0.161596    0.061048    0.000000                     |
 +----------------------------------------------------------------------------+
  
 Time to get kmesh              0.323 (sec)
 *============================================================================*
 |                              MEMORY ESTIMATE                               |
 |         Maximum RAM allocated during each phase of the calculation         |
 *============================================================================*
 |                            Wannierise:           17.21 Mb                  |
 |                          plot_wannier:           17.21 Mb                  |
 *----------------------------------------------------------------------------*
  
 Starting a new Wannier90 calculation ...


 Reading overlaps from mp-23202.mmn    :  Created on  8Apr2024 at 15:26:31

 Reading projections from mp-23202.amn :  Created on  8Apr2024 at 15:26:26  with SCDM

 Time to read overlaps          0.231 (sec)

 Writing checkpoint file mp-23202.chk... done

 
 *------------------------------- WANNIERISE ---------------------------------*
 +--------------------------------------------------------------------+<-- CONV
 | Iter  Delta Spread     RMS Gradient      Spread (Ang^2)      Time  |<-- CONV
 +--------------------------------------------------------------------+<-- CONV
 
 ------------------------------------------------------------------------------
 Initial State
  WF centre and spread    1  ( -0.000299,  2.041697,  1.207339 )     3.28333139
  WF centre and spread    2  ( -0.034048, -1.880662, -1.243619 )     3.41206462
  WF centre and spread    3  ( -0.034717, -1.871795, -1.171678 )     3.41784917
  WF centre and spread    4  (  0.058443, -1.986029, -1.211107 )     3.31204778
  WF centre and spread    5  (  0.010256,  1.848914,  1.222730 )     3.43362871
  WF centre and spread    6  ( -0.013263,  1.837399,  1.219023 )     3.41061289
  WF centre and spread    7  (  0.002380, -5.277142, -1.238677 )     3.63774907
  WF centre and spread    8  ( -2.413297, -1.148195,  1.212215 )     3.55909596
  Sum of centres and spreads ( -2.424544, -6.435813, -0.003775 )    27.46637959
 
      0     0.275E+02     0.0000000000       27.4663805381       0.00  <-- CONV
        O_D=      0.1637803 O_OD=      2.9500038 O_TOT=     27.4663805 <-- SPRD
 ------------------------------------------------------------------------------
 Cycle:      1
  WF centre and spread    1  ( -0.000053,  2.041794,  1.206767 )     3.13386753
  WF centre and spread    2  ( -0.030529, -1.879518, -1.239039 )     3.26639218
  WF centre and spread    3  ( -0.031264, -1.873673, -1.177496 )     3.26321052
  WF centre and spread    4  (  0.056398, -1.984121, -1.210012 )     3.16773830
  WF centre and spread    5  (  0.006193,  1.847968,  1.217495 )     3.28553981
  WF centre and spread    6  ( -0.008146,  1.839327,  1.215361 )     3.27177889
  WF centre and spread    7  (  0.001064, -5.283133, -1.225611 )     3.52340103
  WF centre and spread    8  ( -2.420508, -1.142562,  1.211027 )     3.45145607
  Sum of centres and spreads ( -2.426844, -6.433919, -0.001508 )    26.36338433
 
      1    -0.110E+01     0.5512197508       26.3633852763       0.01  <-- CONV
        O_D=      0.0978473 O_OD=      1.9129416 O_TOT=     26.3633853 <-- SPRD
 Delta: O_D= -0.6593297E-01 O_OD= -0.1037062E+01 O_TOT= -0.1102995E+01 <-- DLTA
 ------------------------------------------------------------------------------
 Cycle:      2
  WF centre and spread    1  (  0.000042,  2.041723,  1.206511 )     3.05667749
  WF centre and spread    2  ( -0.028221, -1.878274, -1.236006 )     3.17784223
  WF centre and spread    3  ( -0.029131, -1.874484, -1.180641 )     3.17809492
  WF centre and spread    4  (  0.055069, -1.982002, -1.209115 )     3.09176115
  WF centre and spread    5  (  0.003508,  1.847105,  1.213843 )     3.19751989
  WF centre and spread    6  ( -0.004721,  1.840837,  1.212640 )     3.19217954
  WF centre and spread    7  (  0.000361, -5.290946, -1.218173 )     3.43972355
  WF centre and spread    8  ( -2.424905, -1.136944,  1.210064 )     3.38358298
  Sum of centres and spreads ( -2.427999, -6.432986, -0.000877 )    25.71738175
 
      2    -0.646E+00     0.6536182169       25.7173826902       0.02  <-- CONV
        O_D=      0.0877427 O_OD=      1.2770436 O_TOT=     25.7173827 <-- SPRD
 Delta: O_D= -0.1010463E-01 O_OD= -0.6358980E+00 O_TOT= -0.6460026E+00 <-- DLTA
 ------------------------------------------------------------------------------
 Cycle:      3
  WF centre and spread    1  (  0.000138,  2.041704,  1.206555 )     3.01554104
  WF centre and spread    2  ( -0.026942, -1.877369, -1.234100 )     3.12178353
  WF centre and spread    3  ( -0.027901, -1.874939, -1.182513 )     3.12646891
  WF centre and spread    4  (  0.054137, -1.980515, -1.208682 )     3.04969344
  WF centre and spread    5  (  0.001986,  1.846680,  1.211729 )     3.14235412
  WF centre and spread    6  ( -0.002681,  1.841944,  1.211050 )     3.14316665
  WF centre and spread    7  (  0.000037, -5.296923, -1.214001 )     3.37834267
  WF centre and spread    8  ( -2.427423, -1.133092,  1.209397 )     3.33566462
  Sum of centres and spreads ( -2.428649, -6.432510, -0.000565 )    25.31301496
 
      3    -0.404E+00     0.5858081265       25.3130158923       0.03  <-- CONV
        O_D=      0.0888129 O_OD=      0.8716066 O_TOT=     25.3130159 <-- SPRD
 Delta: O_D=  0.1070195E-02 O_OD= -0.4054370E+00 O_TOT= -0.4043668E+00 <-- DLTA
 ------------------------------------------------------------------------------
 Cycle:      4
  WF centre and spread    1  (  0.000196,  2.041568,  1.206671 )     2.99816422
  WF centre and spread    2  ( -0.026299, -1.876771, -1.232899 )     3.08989541
  WF centre and spread    3  ( -0.027216, -1.875221, -1.183706 )     3.09628917
  WF centre and spread    4  (  0.053456, -1.979602, -1.208535 )     3.03026235
  WF centre and spread    5  (  0.001177,  1.846537,  1.210558 )     3.10755032
  WF centre and spread    6  ( -0.001614,  1.842588,  1.210198 )     3.11191297
  WF centre and spread    7  ( -0.000097, -5.300562, -1.211662 )     3.33910682
  WF centre and spread    8  ( -2.428678, -1.130796,  1.208960 )     3.30425645
  Sum of centres and spreads ( -2.429075, -6.432259, -0.000414 )    25.07743772
 
      4    -0.236E+00     0.4724273737       25.0774386557       0.03  <-- CONV
        O_D=      0.0776004 O_OD=      0.6472419 O_TOT=     25.0774387 <-- SPRD
 Delta: O_D= -0.1121254E-01 O_OD= -0.2243647E+00 O_TOT= -0.2355772E+00 <-- DLTA
 ------------------------------------------------------------------------------
 Cycle:      5
  WF centre and spread    1  (  0.000200,  2.041210,  1.206780 )     2.99254801
  WF centre and spread    2  ( -0.025977, -1.876322, -1.232055 )     3.07101089
  WF centre and spread    3  ( -0.026762, -1.875414, -1.184617 )     3.07678964
  WF centre and spread    4  (  0.052894, -1.978944, -1.208501 )     3.02278431
  WF centre and spread    5  (  0.000710,  1.846486,  1.209801 )     3.08402682
  WF centre and spread    6  ( -0.001045,  1.842938,  1.209672 )     3.09017689
  WF centre and spread    7  ( -0.000097, -5.302605, -1.210109 )     3.31121710
  WF centre and spread    8  ( -2.429362, -1.129446,  1.208705 )     3.28198255
  Sum of centres and spreads ( -2.429439, -6.432097, -0.000323 )    24.93053620
 
      5    -0.147E+00     0.3794492521       24.9305371396       0.04  <-- CONV
        O_D=      0.0598801 O_OD=      0.5180607 O_TOT=     24.9305371 <-- SPRD
 Delta: O_D= -0.1772030E-01 O_OD= -0.1291812E+00 O_TOT= -0.1469015E+00 <-- DLTA
 ------------------------------------------------------------------------------
 Cycle:      6
  WF centre and spread    1  (  0.000182,  2.040708,  1.206874 )     2.99197498
  WF centre and spread    2  ( -0.025927, -1.875940, -1.231598 )     3.05920962
  WF centre and spread    3  ( -0.026507, -1.875474, -1.185208 )     3.06342553
  WF centre and spread    4  (  0.052518, -1.978406, -1.208513 )     3.02079904
  WF centre and spread    5  (  0.000520,  1.846414,  1.209399 )     3.06787996
  WF centre and spread    6  ( -0.000812,  1.843065,  1.209392 )     3.07534440
  WF centre and spread    7  ( -0.000031, -5.303631, -1.209170 )     3.28940017
  WF centre and spread    8  ( -2.429719, -1.128722,  1.208583 )     3.26820506
  Sum of centres and spreads ( -2.429776, -6.431986, -0.000241 )    24.83623874
 
      6    -0.943E-01     0.3171107654       24.8362396798       0.05  <-- CONV
        O_D=      0.0444884 O_OD=      0.4391549 O_TOT=     24.8362397 <-- SPRD
 Delta: O_D= -0.1539170E-01 O_OD= -0.7890576E-01 O_TOT= -0.9429746E-01 <-- DLTA
 ------------------------------------------------------------------------------
 Cycle:      7
  WF centre and spread    1  (  0.000183,  2.040623,  1.206899 )     2.99008498
  WF centre and spread    2  ( -0.025947, -1.875889, -1.231569 )     3.05601273
  WF centre and spread    3  ( -0.026462, -1.875460, -1.185277 )     3.05994628
  WF centre and spread    4  (  0.052464, -1.978348, -1.208518 )     3.01899918
  WF centre and spread    5  (  0.000522,  1.846383,  1.209381 )     3.06425318
  WF centre and spread    6  ( -0.000789,  1.843031,  1.209359 )     3.07190128
  WF centre and spread    7  ( -0.000028, -5.303649, -1.209060 )     3.28044534
  WF centre and spread    8  ( -2.429771, -1.128672,  1.208559 )     3.26127333
  Sum of centres and spreads ( -2.429827, -6.431981, -0.000226 )    24.80291630
 
      7    -0.333E-01     0.2420546566       24.8029172316       0.05  <-- CONV
        O_D=      0.0391694 O_OD=      0.4111515 O_TOT=     24.8029172 <-- SPRD
 Delta: O_D= -0.5318964E-02 O_OD= -0.2800348E-01 O_TOT= -0.3332245E-01 <-- DLTA
 ------------------------------------------------------------------------------
 Cycle:      8
  WF centre and spread    1  (  0.000182,  2.040418,  1.206938 )     2.99055793
  WF centre and spread    2  ( -0.025992, -1.875760, -1.231538 )     3.05359352
  WF centre and spread    3  ( -0.026383, -1.875400, -1.185356 )     3.05702714
  WF centre and spread    4  (  0.052383, -1.978195, -1.208511 )     3.01974317
  WF centre and spread    5  (  0.000536,  1.846308,  1.209338 )     3.06125922
  WF centre and spread    6  ( -0.000773,  1.842958,  1.209301 )     3.06910759
  WF centre and spread    7  ( -0.000030, -5.303805, -1.208904 )     3.27135686
  WF centre and spread    8  ( -2.429865, -1.128491,  1.208538 )     3.25532034
  Sum of centres and spreads ( -2.429942, -6.431967, -0.000194 )    24.77796578
 
      8    -0.250E-01     0.1577042304       24.7779667142       0.06  <-- CONV
        O_D=      0.0356640 O_OD=      0.3897064 O_TOT=     24.7779667 <-- SPRD
 Delta: O_D= -0.3505434E-02 O_OD= -0.2144508E-01 O_TOT= -0.2495052E-01 <-- DLTA
 ------------------------------------------------------------------------------
 Cycle:      9
  WF centre and spread    1  (  0.000179,  2.040187,  1.206983 )     2.99277777
  WF centre and spread    2  ( -0.026043, -1.875601, -1.231506 )     3.05215831
  WF centre and spread    3  ( -0.026306, -1.875310, -1.185398 )     3.05516640
  WF centre and spread    4  (  0.052315, -1.978006, -1.208485 )     3.02212201
  WF centre and spread    5  (  0.000558,  1.846221,  1.209282 )     3.05902829
  WF centre and spread    6  ( -0.000775,  1.842878,  1.209227 )     3.06714149
  WF centre and spread    7  ( -0.000037, -5.304076, -1.208779 )     3.26296965
  WF centre and spread    8  ( -2.429955, -1.128243,  1.208520 )     3.25042106
  Sum of centres and spreads ( -2.430062, -6.431950, -0.000158 )    24.76178499
 
      9    -0.162E-01     0.1280124977       24.7617859274       0.07  <-- CONV
        O_D=      0.0337397 O_OD=      0.3754498 O_TOT=     24.7617859 <-- SPRD
 Delta: O_D= -0.1924255E-02 O_OD= -0.1425653E-01 O_TOT= -0.1618079E-01 <-- DLTA
 ------------------------------------------------------------------------------
 Cycle:     10
  WF centre and spread    1  (  0.000177,  2.039994,  1.207030 )     2.99579721
  WF centre and spread    2  ( -0.026087, -1.875457, -1.231473 )     3.05140194
  WF centre and spread    3  ( -0.026236, -1.875224, -1.185415 )     3.05409248
  WF centre and spread    4  (  0.052262, -1.977839, -1.208453 )     3.02510760
  WF centre and spread    5  (  0.000581,  1.846153,  1.209227 )     3.05746936
  WF centre and spread    6  ( -0.000781,  1.842820,  1.209152 )     3.06583152
  WF centre and spread    7  ( -0.000045, -5.304375, -1.208700 )     3.25581049
  WF centre and spread    8  ( -2.430025, -1.128010,  1.208504 )     3.24616866
  Sum of centres and spreads ( -2.430154, -6.431938, -0.000129 )    24.75167927
 
     10    -0.101E-01     0.1002893716       24.7516802064       0.07  <-- CONV
        O_D=      0.0330151 O_OD=      0.3660688 O_TOT=     24.7516802 <-- SPRD
 Delta: O_D= -0.7246398E-03 O_OD= -0.9381081E-02 O_TOT= -0.1010572E-01 <-- DLTA
 ------------------------------------------------------------------------------
 Cycle:     11
  WF centre and spread    1  (  0.000177,  2.039852,  1.207074 )     2.99909074
  WF centre and spread    2  ( -0.026123, -1.875346, -1.231440 )     3.05104017
  WF centre and spread    3  ( -0.026179, -1.875160, -1.185422 )     3.05353058
  WF centre and spread    4  (  0.052222, -1.977713, -1.208421 )     3.02820991
  WF centre and spread    5  (  0.000603,  1.846113,  1.209178 )     3.05628634
  WF centre and spread    6  ( -0.000791,  1.842788,  1.209086 )     3.06491962
  WF centre and spread    7  ( -0.000049, -5.304642, -1.208659 )     3.24968355
  WF centre and spread    8  ( -2.430063, -1.127829,  1.208490 )     3.24240597
  Sum of centres and spreads ( -2.430204, -6.431937, -0.000115 )    24.74516689
 
     11    -0.651E-02     0.0803223420       24.7451678211       0.08  <-- CONV
        O_D=      0.0327306 O_OD=      0.3598409 O_TOT=     24.7451678 <-- SPRD
 Delta: O_D= -0.2845049E-03 O_OD= -0.6227880E-02 O_TOT= -0.6512385E-02 <-- DLTA
 ------------------------------------------------------------------------------
 Cycle:     12
  WF centre and spread    1  (  0.000177,  2.039753,  1.207104 )     3.00200019
  WF centre and spread    2  ( -0.026150, -1.875275, -1.231413 )     3.05093513
  WF centre and spread    3  ( -0.026141, -1.875126, -1.185428 )     3.05318496
  WF centre and spread    4  (  0.052194, -1.977630, -1.208397 )     3.03088916
  WF centre and spread    5  (  0.000623,  1.846101,  1.209137 )     3.05535242
  WF centre and spread    6  ( -0.000804,  1.842782,  1.209035 )     3.06422244
  WF centre and spread    7  ( -0.000045, -5.304829, -1.208643 )     3.24496081
  WF centre and spread    8  ( -2.430070, -1.127718,  1.208475 )     3.23944475
  Sum of centres and spreads ( -2.430216, -6.431942, -0.000130 )    24.74098985
 
     12    -0.418E-02     0.0680553442       24.7409907869       0.08  <-- CONV
        O_D=      0.0326246 O_OD=      0.3557698 O_TOT=     24.7409908 <-- SPRD
 Delta: O_D= -0.1059619E-03 O_OD= -0.4071072E-02 O_TOT= -0.4177034E-02 <-- DLTA
 ------------------------------------------------------------------------------
 Cycle:     13
  WF centre and spread    1  (  0.000177,  2.039743,  1.207100 )     3.00204706
  WF centre and spread    2  ( -0.026152, -1.875275, -1.231409 )     3.05075693
  WF centre and spread    3  ( -0.026145, -1.875131, -1.185433 )     3.05290164
  WF centre and spread    4  (  0.052198, -1.977624, -1.208397 )     3.03088616
  WF centre and spread    5  (  0.000629,  1.846109,  1.209133 )     3.05501861
  WF centre and spread    6  ( -0.000810,  1.842791,  1.209032 )     3.06391973
  WF centre and spread    7  ( -0.000041, -5.304825, -1.208634 )     3.24454783
  WF centre and spread    8  ( -2.430068, -1.127729,  1.208470 )     3.23921230
  Sum of centres and spreads ( -2.430211, -6.431939, -0.000139 )    24.73929025
 
     13    -0.170E-02     0.0554259363       24.7392911870       0.09  <-- CONV
        O_D=      0.0323646 O_OD=      0.3543302 O_TOT=     24.7392912 <-- SPRD
 Delta: O_D= -0.2599883E-03 O_OD= -0.1439612E-02 O_TOT= -0.1699600E-02 <-- DLTA
 ------------------------------------------------------------------------------
 Cycle:     14
  WF centre and spread    1  (  0.000179,  2.039713,  1.207087 )     3.00243980
  WF centre and spread    2  ( -0.026162, -1.875271, -1.231407 )     3.05046507
  WF centre and spread    3  ( -0.026163, -1.875138, -1.185440 )     3.05230671
  WF centre and spread    4  (  0.052221, -1.977604, -1.208396 )     3.03113228
  WF centre and spread    5  (  0.000653,  1.846130,  1.209129 )     3.05431942
  WF centre and spread    6  ( -0.000837,  1.842814,  1.209028 )     3.06329371
  WF centre and spread    7  ( -0.000031, -5.304812, -1.208602 )     3.24434648
  WF centre and spread    8  ( -2.430068, -1.127757,  1.208459 )     3.23945184
  Sum of centres and spreads ( -2.430209, -6.431924, -0.000142 )    24.73775531
 
     14    -0.153E-02     0.0361604043       24.7377562442       0.09  <-- CONV
        O_D=      0.0322323 O_OD=      0.3529276 O_TOT=     24.7377562 <-- SPRD
 Delta: O_D= -0.1323523E-03 O_OD= -0.1402590E-02 O_TOT= -0.1534943E-02 <-- DLTA
 ------------------------------------------------------------------------------
 Cycle:     15
  WF centre and spread    1  (  0.000182,  2.039653,  1.207063 )     3.00322715
  WF centre and spread    2  ( -0.026191, -1.875254, -1.231411 )     3.04985440
  WF centre and spread    3  ( -0.026208, -1.875139, -1.185438 )     3.05115568
  WF centre and spread    4  (  0.052278, -1.977564, -1.208392 )     3.03165427
  WF centre and spread    5  (  0.000707,  1.846164,  1.209132 )     3.05296610
  WF centre and spread    6  ( -0.000899,  1.842850,  1.209026 )     3.06207682
  WF centre and spread    7  ( -0.000019, -5.304786, -1.208537 )     3.24445339
  WF centre and spread    8  ( -2.430080, -1.127810,  1.208443 )     3.24047620
  Sum of centres and spreads ( -2.430231, -6.431886, -0.000115 )    24.73586400
 
     15    -0.189E-02     0.0382434375       24.7358649363       0.10  <-- CONV
        O_D=      0.0321612 O_OD=      0.3511073 O_TOT=     24.7358649 <-- SPRD
 Delta: O_D= -0.7104377E-04 O_OD= -0.1820264E-02 O_TOT= -0.1891308E-02 <-- DLTA
 ------------------------------------------------------------------------------
 Cycle:     16
  WF centre and spread    1  (  0.000184,  2.039594,  1.207043 )     3.00409834
  WF centre and spread    2  ( -0.026226, -1.875229, -1.231421 )     3.04925459
  WF centre and spread    3  ( -0.026255, -1.875128, -1.185429 )     3.05006019
  WF centre and spread    4  (  0.052335, -1.977529, -1.208388 )     3.03232386
  WF centre and spread    5  (  0.000764,  1.846188,  1.209142 )     3.05167438
  WF centre and spread    6  ( -0.000962,  1.842877,  1.209026 )     3.06089719
  WF centre and spread    7  ( -0.000012, -5.304762, -1.208478 )     3.24457284
  WF centre and spread    8  ( -2.430097, -1.127853,  1.208430 )     3.24154478
  Sum of centres and spreads ( -2.430269, -6.431842, -0.000075 )    24.73442617
 
     16    -0.144E-02     0.0378263668       24.7344271017       0.10  <-- CONV
        O_D=      0.0321678 O_OD=      0.3496630 O_TOT=     24.7344271 <-- SPRD
 Delta: O_D=  0.6543156E-05 O_OD= -0.1444378E-02 O_TOT= -0.1437835E-02 <-- DLTA
 ------------------------------------------------------------------------------
 Cycle:     17
  WF centre and spread    1  (  0.000186,  2.039551,  1.207033 )     3.00495239
  WF centre and spread    2  ( -0.026255, -1.875203, -1.231428 )     3.04887036
  WF centre and spread    3  ( -0.026288, -1.875110, -1.185422 )     3.04935126
  WF centre and spread    4  (  0.052370, -1.977511, -1.208385 )     3.03309310
  WF centre and spread    5  (  0.000803,  1.846200,  1.209152 )     3.05078954
  WF centre and spread    6  ( -0.001004,  1.842889,  1.209027 )     3.06009044
  WF centre and spread    7  ( -0.000007, -5.304753, -1.208443 )     3.24433954
  WF centre and spread    8  ( -2.430110, -1.127871,  1.208421 )     3.24209114
  Sum of centres and spreads ( -2.430306, -6.431808, -0.000045 )    24.73357776
 
     17    -0.848E-03     0.0302652453       24.7335786949       0.11  <-- CONV
        O_D=      0.0321547 O_OD=      0.3488276 O_TOT=     24.7335787 <-- SPRD
 Delta: O_D= -0.1309005E-04 O_OD= -0.8353168E-03 O_TOT= -0.8484068E-03 <-- DLTA
 ------------------------------------------------------------------------------
 Cycle:     18
  WF centre and spread    1  (  0.000187,  2.039522,  1.207030 )     3.00579612
  WF centre and spread    2  ( -0.026276, -1.875178, -1.231431 )     3.04866905
  WF centre and spread    3  ( -0.026306, -1.875091, -1.185419 )     3.04894813
  WF centre and spread    4  (  0.052384, -1.977506, -1.208382 )     3.03391898
  WF centre and spread    5  (  0.000826,  1.846203,  1.209158 )     3.05023423
  WF centre and spread    6  ( -0.001026,  1.842892,  1.209027 )     3.05958767
  WF centre and spread    7  ( -0.000005, -5.304757, -1.208425 )     3.24379173
  WF centre and spread    8  ( -2.430117, -1.127870,  1.208416 )     3.24215115
  Sum of centres and spreads ( -2.430334, -6.431785, -0.000026 )    24.73309707
 
     18    -0.481E-03     0.0229602894       24.7330979997       0.11  <-- CONV
        O_D=      0.0321296 O_OD=      0.3483720 O_TOT=     24.7330980 <-- SPRD
 Delta: O_D= -0.2505296E-04 O_OD= -0.4556422E-03 O_TOT= -0.4806952E-03 <-- DLTA
 ------------------------------------------------------------------------------
 Cycle:     19
  WF centre and spread    1  (  0.000186,  2.039520,  1.207032 )     3.00598513
  WF centre and spread    2  ( -0.026277, -1.875171, -1.231428 )     3.04865950
  WF centre and spread    3  ( -0.026304, -1.875085, -1.185421 )     3.04893601
  WF centre and spread    4  (  0.052379, -1.977510, -1.208381 )     3.03411394
  WF centre and spread    5  (  0.000825,  1.846200,  1.209157 )     3.05018949
  WF centre and spread    6  ( -0.001023,  1.842890,  1.209026 )     3.05954687
  WF centre and spread    7  ( -0.000004, -5.304763, -1.208425 )     3.24346858
  WF centre and spread    8  ( -2.430117, -1.127865,  1.208415 )     3.24192221
  Sum of centres and spreads ( -2.430336, -6.431784, -0.000026 )    24.73282172
 
     19    -0.275E-03     0.0215631874       24.7328226538       0.12  <-- CONV
        O_D=      0.0320757 O_OD=      0.3481505 O_TOT=     24.7328227 <-- SPRD
 Delta: O_D= -0.5386964E-04 O_OD= -0.2214763E-03 O_TOT= -0.2753459E-03 <-- DLTA
 ------------------------------------------------------------------------------
 Cycle:     20
  WF centre and spread    1  (  0.000186,  2.039514,  1.207037 )     3.00652927
  WF centre and spread    2  ( -0.026281, -1.875153, -1.231423 )     3.04867105
  WF centre and spread    3  ( -0.026298, -1.875071, -1.185425 )     3.04894315
  WF centre and spread    4  (  0.052365, -1.977521, -1.208380 )     3.03466879
  WF centre and spread    5  (  0.000821,  1.846194,  1.209156 )     3.05011150
  WF centre and spread    6  ( -0.001017,  1.842884,  1.209023 )     3.05947676
  WF centre and spread    7  ( -0.000004, -5.304780, -1.208427 )     3.24273750
  WF centre and spread    8  ( -2.430117, -1.127850,  1.208415 )     3.24143648
  Sum of centres and spreads ( -2.430344, -6.431781, -0.000025 )    24.73257450
 
     20    -0.247E-03     0.0148503897       24.7325754350       0.12  <-- CONV
        O_D=      0.0320237 O_OD=      0.3479554 O_TOT=     24.7325754 <-- SPRD
 Delta: O_D= -0.5205957E-04 O_OD= -0.1951592E-03 O_TOT= -0.2472188E-03 <-- DLTA
 ------------------------------------------------------------------------------
 Cycle:     21
  WF centre and spread    1  (  0.000185,  2.039505,  1.207043 )     3.00726387
  WF centre and spread    2  ( -0.026286, -1.875128, -1.231416 )     3.04867761
  WF centre and spread    3  ( -0.026291, -1.875049, -1.185431 )     3.04894555
  WF centre and spread    4  (  0.052349, -1.977535, -1.208377 )     3.03540003
  WF centre and spread    5  (  0.000818,  1.846186,  1.209154 )     3.04999345
  WF centre and spread    6  ( -0.001010,  1.842877,  1.209020 )     3.05936726
  WF centre and spread    7  ( -0.000004, -5.304798, -1.208429 )     3.24183799
  WF centre and spread    8  ( -2.430117, -1.127833,  1.208414 )     3.24088290
  Sum of centres and spreads ( -2.430357, -6.431776, -0.000022 )    24.73236866
 
     21    -0.206E-03     0.0139947621       24.7323695897       0.13  <-- CONV
        O_D=      0.0319935 O_OD=      0.3477797 O_TOT=     24.7323696 <-- SPRD
 Delta: O_D= -0.3022325E-04 O_OD= -0.1756220E-03 O_TOT= -0.2058453E-03 <-- DLTA
 ------------------------------------------------------------------------------
 Cycle:     22
  WF centre and spread    1  (  0.000184,  2.039495,  1.207048 )     3.00789461
  WF centre and spread    2  ( -0.026290, -1.875105, -1.231410 )     3.04866398
  WF centre and spread    3  ( -0.026287, -1.875028, -1.185435 )     3.04892441
  WF centre and spread    4  (  0.052337, -1.977550, -1.208376 )     3.03600129
  WF centre and spread    5  (  0.000817,  1.846180,  1.209153 )     3.04986462
  WF centre and spread    6  ( -0.001007,  1.842871,  1.209018 )     3.05924248
  WF centre and spread    7  ( -0.000004, -5.304810, -1.208428 )     3.24114638
  WF centre and spread    8  ( -2.430119, -1.127823,  1.208413 )     3.24050246
  Sum of centres and spreads ( -2.430369, -6.431771, -0.000017 )    24.73224022
 
     22    -0.128E-03     0.0118932751       24.7322411517       0.13  <-- CONV
        O_D=      0.0319851 O_OD=      0.3476597 O_TOT=     24.7322412 <-- SPRD
 Delta: O_D= -0.8344668E-05 O_OD= -0.1200933E-03 O_TOT= -0.1284380E-03 <-- DLTA
 ------------------------------------------------------------------------------
 Cycle:     23
  WF centre and spread    1  (  0.000184,  2.039488,  1.207051 )     3.00830941
  WF centre and spread    2  ( -0.026292, -1.875090, -1.231406 )     3.04864453
  WF centre and spread    3  ( -0.026285, -1.875015, -1.185439 )     3.04889350
  WF centre and spread    4  (  0.052331, -1.977563, -1.208375 )     3.03637132
  WF centre and spread    5  (  0.000817,  1.846177,  1.209153 )     3.04975798
  WF centre and spread    6  ( -0.001007,  1.842868,  1.209017 )     3.05913785
  WF centre and spread    7  ( -0.000004, -5.304812, -1.208427 )     3.24074744
  WF centre and spread    8  ( -2.430121, -1.127821,  1.208413 )     3.24031749
  Sum of centres and spreads ( -2.430378, -6.431767, -0.000012 )    24.73217952
 
     23    -0.607E-04     0.0084745069       24.7321804568       0.14  <-- CONV
        O_D=      0.0319818 O_OD=      0.3476022 O_TOT=     24.7321805 <-- SPRD
 Delta: O_D= -0.3283371E-05 O_OD= -0.5741147E-04 O_TOT= -0.6069484E-04 <-- DLTA
 ------------------------------------------------------------------------------
 Cycle:     24
  WF centre and spread    1  (  0.000183,  2.039480,  1.207053 )     3.00870389
  WF centre and spread    2  ( -0.026294, -1.875075, -1.231403 )     3.04863017
  WF centre and spread    3  ( -0.026284, -1.875001, -1.185443 )     3.04885726
  WF centre and spread    4  (  0.052326, -1.977579, -1.208375 )     3.03670420
  WF centre and spread    5  (  0.000819,  1.846177,  1.209153 )     3.04964734
  WF centre and spread    6  ( -0.001009,  1.842868,  1.209017 )     3.05902896
  WF centre and spread    7  ( -0.000004, -5.304810, -1.208425 )     3.24039621
  WF centre and spread    8  ( -2.430121, -1.127824,  1.208412 )     3.24017016
  Sum of centres and spreads ( -2.430383, -6.431764, -0.000010 )    24.73213818
 
     24    -0.413E-04     0.0063674489       24.7321391174       0.14  <-- CONV
        O_D=      0.0319798 O_OD=      0.3475630 O_TOT=     24.7321391 <-- SPRD
 Delta: O_D= -0.2061688E-05 O_OD= -0.3927772E-04 O_TOT= -0.4133941E-04 <-- DLTA
 ------------------------------------------------------------------------------
 Cycle:     25
  WF centre and spread    1  (  0.000183,  2.039479,  1.207053 )     3.00874378
  WF centre and spread    2  ( -0.026294, -1.875073, -1.231402 )     3.04862859
  WF centre and spread    3  ( -0.026284, -1.874999, -1.185444 )     3.04884595
  WF centre and spread    4  (  0.052325, -1.977584, -1.208375 )     3.03673219
  WF centre and spread    5  (  0.000820,  1.846178,  1.209153 )     3.04962754
  WF centre and spread    6  ( -0.001009,  1.842869,  1.209017 )     3.05900977
  WF centre and spread    7  ( -0.000003, -5.304808, -1.208425 )     3.24036238
  WF centre and spread    8  ( -2.430120, -1.127826,  1.208412 )     3.24015910
  Sum of centres and spreads ( -2.430382, -6.431763, -0.000011 )    24.73210930
 
     25    -0.289E-04     0.0070218573       24.7321102358       0.15  <-- CONV
        O_D=      0.0319743 O_OD=      0.3475395 O_TOT=     24.7321102 <-- SPRD
 Delta: O_D= -0.5453135E-05 O_OD= -0.2342847E-04 O_TOT= -0.2888161E-04 <-- DLTA
 ------------------------------------------------------------------------------
 Cycle:     26
  WF centre and spread    1  (  0.000183,  2.039474,  1.207053 )     3.00885946
  WF centre and spread    2  ( -0.026294, -1.875066, -1.231400 )     3.04861845
  WF centre and spread    3  ( -0.026286, -1.874992, -1.185446 )     3.04880713
  WF centre and spread    4  (  0.052325, -1.977597, -1.208376 )     3.03681309
  WF centre and spread    5  (  0.000823,  1.846181,  1.209154 )     3.04956535
  WF centre and spread    6  ( -0.001013,  1.842871,  1.209018 )     3.05894930
  WF centre and spread    7  ( -0.000002, -5.304801, -1.208423 )     3.24030269
  WF centre and spread    8  ( -2.430119, -1.127832,  1.208411 )     3.24016537
  Sum of centres and spreads ( -2.430382, -6.431761, -0.000011 )    24.73208084
 
     26    -0.285E-04     0.0048354382       24.7320817734       0.15  <-- CONV
        O_D=      0.0319694 O_OD=      0.3475160 O_TOT=     24.7320818 <-- SPRD
 Delta: O_D= -0.4922050E-05 O_OD= -0.2354039E-04 O_TOT= -0.2846244E-04 <-- DLTA
 ------------------------------------------------------------------------------
 Cycle:     27
  WF centre and spread    1  (  0.000184,  2.039466,  1.207052 )     3.00906758
  WF centre and spread    2  ( -0.026295, -1.875050, -1.231397 )     3.04858216
  WF centre and spread    3  ( -0.026289, -1.874976, -1.185451 )     3.04871924
  WF centre and spread    4  (  0.052326, -1.977624, -1.208377 )     3.03695976
  WF centre and spread    5  (  0.000829,  1.846185,  1.209156 )     3.04943476
  WF centre and spread    6  ( -0.001020,  1.842875,  1.209019 )     3.05882224
  WF centre and spread    7  ( -0.000001, -5.304788, -1.208419 )     3.24023632
  WF centre and spread    8  ( -2.430119, -1.127844,  1.208410 )     3.24022343
  Sum of centres and spreads ( -2.430385, -6.431756, -0.000007 )    24.73204548
 
     27    -0.354E-04     0.0052500377       24.7320464120       0.15  <-- CONV
        O_D=      0.0319653 O_OD=      0.3474848 O_TOT=     24.7320464 <-- SPRD
 Delta: O_D= -0.4140575E-05 O_OD= -0.3122079E-04 O_TOT= -0.3536137E-04 <-- DLTA
 ------------------------------------------------------------------------------
 Cycle:     28
  WF centre and spread    1  (  0.000184,  2.039457,  1.207051 )     3.00929280
  WF centre and spread    2  ( -0.026296, -1.875031, -1.231394 )     3.04853680
  WF centre and spread    3  ( -0.026292, -1.874957, -1.185455 )     3.04862352
  WF centre and spread    4  (  0.052327, -1.977655, -1.208378 )     3.03712926
  WF centre and spread    5  (  0.000836,  1.846189,  1.209159 )     3.04929374
  WF centre and spread    6  ( -0.001028,  1.842878,  1.209021 )     3.05868497
  WF centre and spread    7  ( -0.000001, -5.304776, -1.208414 )     3.24016902
  WF centre and spread    8  ( -2.430120, -1.127854,  1.208409 )     3.24028610
  Sum of centres and spreads ( -2.430391, -6.431749, -0.000002 )    24.73201622
 
     28    -0.293E-04     0.0053314433       24.7320171528       0.16  <-- CONV
        O_D=      0.0319636 O_OD=      0.3474572 O_TOT=     24.7320172 <-- SPRD
 Delta: O_D= -0.1703014E-05 O_OD= -0.2755623E-04 O_TOT= -0.2925925E-04 <-- DLTA
 ------------------------------------------------------------------------------
 Cycle:     29
  WF centre and spread    1  (  0.000184,  2.039451,  1.207051 )     3.00949876
  WF centre and spread    2  ( -0.026296, -1.875013, -1.231390 )     3.04850570
  WF centre and spread    3  ( -0.026293, -1.874939, -1.185460 )     3.04855655
  WF centre and spread    4  (  0.052324, -1.977684, -1.208378 )     3.03730089
  WF centre and spread    5  (  0.000840,  1.846190,  1.209161 )     3.04918785
  WF centre and spread    6  ( -0.001033,  1.842880,  1.209022 )     3.05858278
  WF centre and spread    7  ( -0.000000, -5.304769, -1.208410 )     3.24007157
  WF centre and spread    8  ( -2.430121, -1.127860,  1.208408 )     3.24029294
  Sum of centres and spreads ( -2.430396, -6.431744,  0.000003 )    24.73199704
 
     29    -0.192E-04     0.0044698002       24.7319979780       0.16  <-- CONV
        O_D=      0.0319620 O_OD=      0.3474396 O_TOT=     24.7319980 <-- SPRD
 Delta: O_D= -0.1602468E-05 O_OD= -0.1757233E-04 O_TOT= -0.1917480E-04 <-- DLTA
 ------------------------------------------------------------------------------
 Cycle:     30
  WF centre and spread    1  (  0.000183,  2.039447,  1.207051 )     3.00970035
  WF centre and spread    2  ( -0.026296, -1.874995, -1.231385 )     3.04849164
  WF centre and spread    3  ( -0.026293, -1.874921, -1.185465 )     3.04851747
  WF centre and spread    4  (  0.052319, -1.977714, -1.208378 )     3.03748275
  WF centre and spread    5  (  0.000843,  1.846191,  1.209162 )     3.04911462
  WF centre and spread    6  ( -0.001035,  1.842880,  1.209023 )     3.05851330
  WF centre and spread    7  ( -0.000000, -5.304765, -1.208408 )     3.23992853
  WF centre and spread    8  ( -2.430122, -1.127863,  1.208407 )     3.24023545
  Sum of centres and spreads ( -2.430400, -6.431740,  0.000006 )    24.73198409
 
     30    -0.130E-04     0.0035925521       24.7319850250       0.17  <-- CONV
        O_D=      0.0319602 O_OD=      0.3474284 O_TOT=     24.7319850 <-- SPRD
 Delta: O_D= -0.1728027E-05 O_OD= -0.1122497E-04 O_TOT= -0.1295300E-04 <-- DLTA
 ------------------------------------------------------------------------------
 Cycle:     31
  WF centre and spread    1  (  0.000183,  2.039448,  1.207051 )     3.00973056
  WF centre and spread    2  ( -0.026295, -1.874992, -1.231384 )     3.04849584
  WF centre and spread    3  ( -0.026292, -1.874918, -1.185466 )     3.04852218
  WF centre and spread    4  (  0.052317, -1.977720, -1.208378 )     3.03751373
  WF centre and spread    5  (  0.000842,  1.846190,  1.209161 )     3.04911574
  WF centre and spread    6  ( -0.001034,  1.842879,  1.209022 )     3.05851495
  WF centre and spread    7  ( -0.000000, -5.304766, -1.208409 )     3.23988366
  WF centre and spread    8  ( -2.430122, -1.127862,  1.208407 )     3.24019797
  Sum of centres and spreads ( -2.430400, -6.431741,  0.000005 )    24.73197463
 
     31    -0.946E-05     0.0040242736       24.7319755654       0.17  <-- CONV
        O_D=      0.0319582 O_OD=      0.3474210 O_TOT=     24.7319756 <-- SPRD
 Delta: O_D= -0.2020617E-05 O_OD= -0.7438957E-05 O_TOT= -0.9459574E-05 <-- DLTA
 ------------------------------------------------------------------------------
 Cycle:     32
  WF centre and spread    1  (  0.000183,  2.039449,  1.207052 )     3.00981780
  WF centre and spread    2  ( -0.026293, -1.874982, -1.231380 )     3.04850815
  WF centre and spread    3  ( -0.026289, -1.874908, -1.185470 )     3.04853611
  WF centre and spread    4  (  0.052311, -1.977739, -1.208378 )     3.03760234
  WF centre and spread    5  (  0.000841,  1.846189,  1.209160 )     3.04911909
  WF centre and spread    6  ( -0.001032,  1.842878,  1.209021 )     3.05851960
  WF centre and spread    7  (  0.000000, -5.304768, -1.208409 )     3.23976318
  WF centre and spread    8  ( -2.430121, -1.127860,  1.208407 )     3.24009902
  Sum of centres and spreads ( -2.430400, -6.431741,  0.000005 )    24.73196531
 
     32    -0.932E-05     0.0027885096       24.7319662418       0.17  <-- CONV
        O_D=      0.0319563 O_OD=      0.3474135 O_TOT=     24.7319662 <-- SPRD
 Delta: O_D= -0.1859343E-05 O_OD= -0.7464310E-05 O_TOT= -0.9323653E-05 <-- DLTA
 ------------------------------------------------------------------------------
 Cycle:     33
  WF centre and spread    1  (  0.000183,  2.039449,  1.207054 )     3.00994641
  WF centre and spread    2  ( -0.026290, -1.874965, -1.231373 )     3.04852257
  WF centre and spread    3  ( -0.026284, -1.874892, -1.185476 )     3.04855315
  WF centre and spread    4  (  0.052300, -1.977769, -1.208377 )     3.03772946
  WF centre and spread    5  (  0.000839,  1.846188,  1.209159 )     3.04911904
  WF centre and spread    6  ( -0.001029,  1.842877,  1.209020 )     3.05852113
  WF centre and spread    7  (  0.000000, -5.304771, -1.208410 )     3.23959661
  WF centre and spread    8  ( -2.430121, -1.127858,  1.208408 )     3.23996749
  Sum of centres and spreads ( -2.430402, -6.431741,  0.000005 )    24.73195586
 
     33    -0.945E-05     0.0028260326       24.7319567952       0.18  <-- CONV
        O_D=      0.0319557 O_OD=      0.3474047 O_TOT=     24.7319568 <-- SPRD
 Delta: O_D= -0.6438321E-06 O_OD= -0.8802716E-05 O_TOT= -0.9446548E-05 <-- DLTA
 ------------------------------------------------------------------------------
 Cycle:     34
  WF centre and spread    1  (  0.000183,  2.039449,  1.207056 )     3.01008109
  WF centre and spread    2  ( -0.026287, -1.874944, -1.231366 )     3.04853170
  WF centre and spread    3  ( -0.026278, -1.874872, -1.185483 )     3.04856489
  WF centre and spread    4  (  0.052288, -1.977807, -1.208376 )     3.03785521
  WF centre and spread    5  (  0.000837,  1.846186,  1.209158 )     3.04911090
  WF centre and spread    6  ( -0.001027,  1.842875,  1.209019 )     3.05851410
  WF centre and spread    7  ( -0.000000, -5.304773, -1.208410 )     3.23943848
  WF centre and spread    8  ( -2.430121, -1.127855,  1.208408 )     3.23985093
  Sum of centres and spreads ( -2.430404, -6.431741,  0.000005 )    24.73194729
 
     34    -0.857E-05     0.0027905998       24.7319482272       0.18  <-- CONV
        O_D=      0.0319563 O_OD=      0.3473956 O_TOT=     24.7319482 <-- SPRD
 Delta: O_D=  0.5543928E-06 O_OD= -0.9122399E-05 O_TOT= -0.8568006E-05 <-- DLTA
 ------------------------------------------------------------------------------
 Cycle:     35
  WF centre and spread    1  (  0.000182,  2.039449,  1.207058 )     3.01019234
  WF centre and spread    2  ( -0.026282, -1.874922, -1.231358 )     3.04853588
  WF centre and spread    3  ( -0.026273, -1.874851, -1.185491 )     3.04857026
  WF centre and spread    4  (  0.052277, -1.977847, -1.208376 )     3.03794869
  WF centre and spread    5  (  0.000836,  1.846185,  1.209157 )     3.04909762
  WF centre and spread    6  ( -0.001025,  1.842874,  1.209018 )     3.05850135
  WF centre and spread    7  ( -0.000000, -5.304773, -1.208410 )     3.23932155
  WF centre and spread    8  ( -2.430121, -1.127855,  1.208408 )     3.23977275
  Sum of centres and spreads ( -2.430406, -6.431741,  0.000006 )    24.73194044
 
     35    -0.685E-05     0.0025167663       24.7319413761       0.19  <-- CONV
        O_D=      0.0319568 O_OD=      0.3473882 O_TOT=     24.7319414 <-- SPRD
 Delta: O_D=  0.5401108E-06 O_OD= -0.7391216E-05 O_TOT= -0.6851105E-05 <-- DLTA
 ------------------------------------------------------------------------------
 Cycle:     36
  WF centre and spread    1  (  0.000182,  2.039448,  1.207060 )     3.01033130
  WF centre and spread    2  ( -0.026275, -1.874888, -1.231345 )     3.04854533
  WF centre and spread    3  ( -0.026265, -1.874817, -1.185503 )     3.04857820
  WF centre and spread    4  (  0.052260, -1.977913, -1.208376 )     3.03805083
  WF centre and spread    5  (  0.000835,  1.846184,  1.209156 )     3.04907968
  WF centre and spread    6  ( -0.001024,  1.842873,  1.209017 )     3.05848361
  WF centre and spread    7  ( -0.000000, -5.304772, -1.208410 )     3.23918067
  WF centre and spread    8  ( -2.430121, -1.127855,  1.208408 )     3.23968200
  Sum of centres and spreads ( -2.430408, -6.431741,  0.000007 )    24.73193163
 
     36    -0.882E-05     0.0024925900       24.7319325601       0.19  <-- CONV
        O_D=      0.0319574 O_OD=      0.3473788 O_TOT=     24.7319326 <-- SPRD
 Delta: O_D=  0.6014520E-06 O_OD= -0.9417424E-05 O_TOT= -0.8815972E-05 <-- DLTA
 ------------------------------------------------------------------------------
 Cycle:     37
  WF centre and spread    1  (  0.000182,  2.039447,  1.207061 )     3.01032355
  WF centre and spread    2  ( -0.026275, -1.874886, -1.231344 )     3.04854812
  WF centre and spread    3  ( -0.026264, -1.874815, -1.185504 )     3.04857910
  WF centre and spread    4  (  0.052259, -1.977918, -1.208376 )     3.03803887
  WF centre and spread    5  (  0.000835,  1.846185,  1.209156 )     3.04908081
  WF centre and spread    6  ( -0.001024,  1.842874,  1.209017 )     3.05848468
  WF centre and spread    7  ( -0.000000, -5.304772, -1.208410 )     3.23918518
  WF centre and spread    8  ( -2.430121, -1.127856,  1.208408 )     3.23968328
  Sum of centres and spreads ( -2.430408, -6.431741,  0.000006 )    24.73192359
 
     37    -0.803E-05     0.0038471153       24.7319245293       0.19  <-- CONV
        O_D=      0.0319556 O_OD=      0.3473725 O_TOT=     24.7319245 <-- SPRD
 Delta: O_D= -0.1763006E-05 O_OD= -0.6267780E-05 O_TOT= -0.8030786E-05 <-- DLTA
 ------------------------------------------------------------------------------
 Cycle:     38
  WF centre and spread    1  (  0.000182,  2.039446,  1.207061 )     3.01030074
  WF centre and spread    2  ( -0.026273, -1.874880, -1.231342 )     3.04855237
  WF centre and spread    3  ( -0.026263, -1.874808, -1.185507 )     3.04857850
  WF centre and spread    4  (  0.052257, -1.977932, -1.208376 )     3.03800441
  WF centre and spread    5  (  0.000836,  1.846186,  1.209156 )     3.04908138
  WF centre and spread    6  ( -0.001025,  1.842875,  1.209017 )     3.05848504
  WF centre and spread    7  ( -0.000000, -5.304770, -1.208410 )     3.23921291
  WF centre and spread    8  ( -2.430121, -1.127858,  1.208408 )     3.23970201
  Sum of centres and spreads ( -2.430407, -6.431741,  0.000006 )    24.73191736
 
     38    -0.623E-05     0.0023791353       24.7319182981       0.20  <-- CONV
        O_D=      0.0319544 O_OD=      0.3473675 O_TOT=     24.7319183 <-- SPRD
 Delta: O_D= -0.1261893E-05 O_OD= -0.4969297E-05 O_TOT= -0.6231190E-05 <-- DLTA
 ------------------------------------------------------------------------------
 Cycle:     39
  WF centre and spread    1  (  0.000182,  2.039445,  1.207061 )     3.01025306
  WF centre and spread    2  ( -0.026269, -1.874865, -1.231337 )     3.04855189
  WF centre and spread    3  ( -0.026261, -1.874793, -1.185512 )     3.04856960
  WF centre and spread    4  (  0.052252, -1.977963, -1.208377 )     3.03793331
  WF centre and spread    5  (  0.000837,  1.846188,  1.209156 )     3.04907472
  WF centre and spread    6  ( -0.001026,  1.842876,  1.209017 )     3.05847809
  WF centre and spread    7  (  0.000000, -5.304767, -1.208409 )     3.23928811
  WF centre and spread    8  ( -2.430121, -1.127861,  1.208407 )     3.23976095
  Sum of centres and spreads ( -2.430406, -6.431740,  0.000006 )    24.73190974
 
     39    -0.763E-05     0.0023893261       24.7319106697       0.20  <-- CONV
        O_D=      0.0319536 O_OD=      0.3473607 O_TOT=     24.7319107 <-- SPRD
 Delta: O_D= -0.7414198E-06 O_OD= -0.6886988E-05 O_TOT= -0.7628408E-05 <-- DLTA
 ------------------------------------------------------------------------------
 Cycle:     40
  WF centre and spread    1  (  0.000182,  2.039443,  1.207061 )     3.01019531
  WF centre and spread    2  ( -0.026264, -1.874843, -1.231330 )     3.04854543
  WF centre and spread    3  ( -0.026258, -1.874771, -1.185520 )     3.04855361
  WF centre and spread    4  (  0.052245, -1.978008, -1.208378 )     3.03784396
  WF centre and spread    5  (  0.000838,  1.846189,  1.209157 )     3.04906035
  WF centre and spread    6  ( -0.001028,  1.842878,  1.209018 )     3.05846339
  WF centre and spread    7  (  0.000000, -5.304763, -1.208408 )     3.23939286
  WF centre and spread    8  ( -2.430121, -1.127864,  1.208407 )     3.23984632
  Sum of centres and spreads ( -2.430406, -6.431740,  0.000007 )    24.73190123
 
     40    -0.851E-05     0.0026354444       24.7319021638       0.20  <-- CONV
        O_D=      0.0319542 O_OD=      0.3473515 O_TOT=     24.7319022 <-- SPRD
 Delta: O_D=  0.6172093E-06 O_OD= -0.9123112E-05 O_TOT= -0.8505902E-05 <-- DLTA
 ------------------------------------------------------------------------------
 Cycle:     41
  WF centre and spread    1  (  0.000182,  2.039441,  1.207062 )     3.01015307
  WF centre and spread    2  ( -0.026257, -1.874815, -1.231320 )     3.04853998
  WF centre and spread    3  ( -0.026253, -1.874741, -1.185531 )     3.04854013
  WF centre and spread    4  (  0.052234, -1.978067, -1.208378 )     3.03776824
  WF centre and spread    5  (  0.000839,  1.846191,  1.209157 )     3.04904578
  WF centre and spread    6  ( -0.001030,  1.842879,  1.209018 )     3.05844883
  WF centre and spread    7  (  0.000000, -5.304759, -1.208406 )     3.23948019
  WF centre and spread    8  ( -2.430122, -1.127867,  1.208407 )     3.23991638
  Sum of centres and spreads ( -2.430406, -6.431739,  0.000009 )    24.73189261
 
     41    -0.862E-05     0.0026942176       24.7318935450       0.21  <-- CONV
        O_D=      0.0319560 O_OD=      0.3473412 O_TOT=     24.7318935 <-- SPRD
 Delta: O_D=  0.1748167E-05 O_OD= -0.1036703E-04 O_TOT= -0.8618863E-05 <-- DLTA
 ------------------------------------------------------------------------------
 Cycle:     42
  WF centre and spread    1  (  0.000182,  2.039441,  1.207063 )     3.01014263
  WF centre and spread    2  ( -0.026248, -1.874778, -1.231307 )     3.04854246
  WF centre and spread    3  ( -0.026245, -1.874704, -1.185544 )     3.04853694
  WF centre and spread    4  (  0.052217, -1.978142, -1.208378 )     3.03772398
  WF centre and spread    5  (  0.000839,  1.846191,  1.209156 )     3.04903785
  WF centre and spread    6  ( -0.001029,  1.842879,  1.209018 )     3.05844160
  WF centre and spread    7  (  0.000000, -5.304757, -1.208406 )     3.23951725
  WF centre and spread    8  ( -2.430122, -1.127869,  1.208407 )     3.23994089
  Sum of centres and spreads ( -2.430407, -6.431739,  0.000009 )    24.73188359
 
     42    -0.902E-05     0.0026972194       24.7318845268       0.21  <-- CONV
        O_D=      0.0319583 O_OD=      0.3473299 O_TOT=     24.7318845 <-- SPRD
 Delta: O_D=  0.2260982E-05 O_OD= -0.1127918E-04 O_TOT= -0.9018197E-05 <-- DLTA
 ------------------------------------------------------------------------------
 Cycle:     43
  WF centre and spread    1  (  0.000182,  2.039441,  1.207064 )     3.01016030
  WF centre and spread    2  ( -0.026247, -1.874775, -1.231305 )     3.04854667
  WF centre and spread    3  ( -0.026243, -1.874701, -1.185546 )     3.04854285
  WF centre and spread    4  (  0.052214, -1.978148, -1.208378 )     3.03774264
  WF centre and spread    5  (  0.000838,  1.846191,  1.209156 )     3.04904177
  WF centre and spread    6  ( -0.001028,  1.842879,  1.209017 )     3.05844591
  WF centre and spread    7  (  0.000000, -5.304758, -1.208406 )     3.23948356
  WF centre and spread    8  ( -2.430122, -1.127868,  1.208407 )     3.23991124
  Sum of centres and spreads ( -2.430407, -6.431740,  0.000009 )    24.73187494
 
     43    -0.866E-05     0.0038495750       24.7318758708       0.21  <-- CONV
        O_D=      0.0319564 O_OD=      0.3473231 O_TOT=     24.7318759 <-- SPRD
 Delta: O_D= -0.1890313E-05 O_OD= -0.6765639E-05 O_TOT= -0.8655952E-05 <-- DLTA
 ------------------------------------------------------------------------------
 Cycle:     44
  WF centre and spread    1  (  0.000182,  2.039443,  1.207065 )     3.01021010
  WF centre and spread    2  ( -0.026245, -1.874765, -1.231301 )     3.04855877
  WF centre and spread    3  ( -0.026240, -1.874692, -1.185550 )     3.04856005
  WF centre and spread    4  (  0.052207, -1.978168, -1.208378 )     3.03779459
  WF centre and spread    5  (  0.000836,  1.846190,  1.209154 )     3.04905310
  WF centre and spread    6  ( -0.001025,  1.842878,  1.209016 )     3.05845818
  WF centre and spread    7  (  0.000000, -5.304761, -1.208407 )     3.23939636
  WF centre and spread    8  ( -2.430121, -1.127866,  1.208407 )     3.23983516
  Sum of centres and spreads ( -2.430407, -6.431741,  0.000008 )    24.73186631
 
     44    -0.863E-05     0.0026798350       24.7318672435       0.22  <-- CONV
        O_D=      0.0319548 O_OD=      0.3473160 O_TOT=     24.7318672 <-- SPRD
 Delta: O_D= -0.1526445E-05 O_OD= -0.7100850E-05 O_TOT= -0.8627296E-05 <-- DLTA
 ------------------------------------------------------------------------------
 Cycle:     45
  WF centre and spread    1  (  0.000181,  2.039445,  1.207067 )     3.01027529
  WF centre and spread    2  ( -0.026241, -1.874749, -1.231294 )     3.04857203
  WF centre and spread    3  ( -0.026234, -1.874677, -1.185556 )     3.04858127
  WF centre and spread    4  (  0.052195, -1.978199, -1.208377 )     3.03786022
  WF centre and spread    5  (  0.000833,  1.846188,  1.209153 )     3.04906495
  WF centre and spread    6  ( -0.001022,  1.842876,  1.209015 )     3.05847110
  WF centre and spread    7  (  0.000000, -5.304764, -1.208408 )     3.23928889
  WF centre and spread    8  ( -2.430121, -1.127862,  1.208407 )     3.23974406
  Sum of centres and spreads ( -2.430407, -6.431742,  0.000007 )    24.73185782
 
     45    -0.849E-05     0.0026945770       24.7318587551       0.22  <-- CONV
        O_D=      0.0319548 O_OD=      0.3473076 O_TOT=     24.7318588 <-- SPRD
 Delta: O_D= -0.3637348E-07 O_OD= -0.8452034E-05 O_TOT= -0.8488407E-05 <-- DLTA
 ------------------------------------------------------------------------------
 Cycle:     46
  WF centre and spread    1  (  0.000181,  2.039447,  1.207069 )     3.01033250
  WF centre and spread    2  ( -0.026236, -1.874729, -1.231285 )     3.04857977
  WF centre and spread    3  ( -0.026228, -1.874657, -1.185564 )     3.04859791
  WF centre and spread    4  (  0.052182, -1.978238, -1.208376 )     3.03791230
  WF centre and spread    5  (  0.000831,  1.846186,  1.209151 )     3.04907091
  WF centre and spread    6  ( -0.001019,  1.842874,  1.209013 )     3.05847772
  WF centre and spread    7  (  0.000000, -5.304768, -1.208409 )     3.23920322
  WF centre and spread    8  ( -2.430121, -1.127860,  1.208408 )     3.23967577
  Sum of centres and spreads ( -2.430409, -6.431743,  0.000006 )    24.73185010
 
     46    -0.773E-05     0.0026428132       24.7318510299       0.22  <-- CONV
        O_D=      0.0319560 O_OD=      0.3472986 O_TOT=     24.7318510 <-- SPRD
 Delta: O_D=  0.1210930E-05 O_OD= -0.8936183E-05 O_TOT= -0.7725253E-05 <-- DLTA
 ------------------------------------------------------------------------------
 Cycle:     47
  WF centre and spread    1  (  0.000181,  2.039448,  1.207071 )     3.01036562
  WF centre and spread    2  ( -0.026231, -1.874707, -1.231277 )     3.04858285
  WF centre and spread    3  ( -0.026221, -1.874636, -1.185572 )     3.04860821
  WF centre and spread    4  (  0.052170, -1.978280, -1.208376 )     3.03793303
  WF centre and spread    5  (  0.000829,  1.846185,  1.209150 )     3.04907163
  WF centre and spread    6  ( -0.001016,  1.842873,  1.209012 )     3.05847870
  WF centre and spread    7  ( -0.000000, -5.304770, -1.208409 )     3.23915893
  WF centre and spread    8  ( -2.430121, -1.127858,  1.208408 )     3.23964477
  Sum of centres and spreads ( -2.430410, -6.431744,  0.000007 )    24.73184374
 
     47    -0.636E-05     0.0024075817       24.7318446733       0.23  <-- CONV
        O_D=      0.0319575 O_OD=      0.3472908 O_TOT=     24.7318447 <-- SPRD
 Delta: O_D=  0.1441456E-05 O_OD= -0.7797980E-05 O_TOT= -0.6356524E-05 <-- DLTA
 ------------------------------------------------------------------------------
 Cycle:     48
  WF centre and spread    1  (  0.000180,  2.039449,  1.207073 )     3.01038667
  WF centre and spread    2  ( -0.026223, -1.874672, -1.231264 )     3.04859096
  WF centre and spread    3  ( -0.026212, -1.874602, -1.185585 )     3.04862295
  WF centre and spread    4  (  0.052151, -1.978349, -1.208376 )     3.03792705
  WF centre and spread    5  (  0.000827,  1.846185,  1.209149 )     3.04907431
  WF centre and spread    6  ( -0.001014,  1.842872,  1.209011 )     3.05848128
  WF centre and spread    7  ( -0.000000, -5.304771, -1.208409 )     3.23912764
  WF centre and spread    8  ( -2.430121, -1.127857,  1.208408 )     3.23962471
  Sum of centres and spreads ( -2.430412, -6.431745,  0.000007 )    24.73183555
 
     48    -0.819E-05     0.0024012362       24.7318364861       0.23  <-- CONV
        O_D=      0.0319595 O_OD=      0.3472807 O_TOT=     24.7318365 <-- SPRD
 Delta: O_D=  0.1994965E-05 O_OD= -0.1018225E-04 O_TOT= -0.8187289E-05 <-- DLTA
 ------------------------------------------------------------------------------
 Cycle:     49
  WF centre and spread    1  (  0.000180,  2.039448,  1.207073 )     3.01037677
  WF centre and spread    2  ( -0.026222, -1.874670, -1.231263 )     3.04859407
  WF centre and spread    3  ( -0.026211, -1.874599, -1.185586 )     3.04862411
  WF centre and spread    4  (  0.052151, -1.978354, -1.208376 )     3.03791323
  WF centre and spread    5  (  0.000827,  1.846185,  1.209148 )     3.04907596
  WF centre and spread    6  ( -0.001014,  1.842873,  1.209011 )     3.05848285
  WF centre and spread    7  ( -0.000000, -5.304771, -1.208410 )     3.23913359
  WF centre and spread    8  ( -2.430121, -1.127857,  1.208408 )     3.23962704
  Sum of centres and spreads ( -2.430411, -6.431745,  0.000006 )    24.73182763
 
     49    -0.792E-05     0.0038003708       24.7318285659       0.23  <-- CONV
        O_D=      0.0319577 O_OD=      0.3472745 O_TOT=     24.7318286 <-- SPRD
 Delta: O_D= -0.1772814E-05 O_OD= -0.6147355E-05 O_TOT= -0.7920169E-05 <-- DLTA
 ------------------------------------------------------------------------------
 Cycle:     50
  WF centre and spread    1  (  0.000180,  2.039447,  1.207073 )     3.01034833
  WF centre and spread    2  ( -0.026220, -1.874664, -1.231261 )     3.04859921
  WF centre and spread    3  ( -0.026210, -1.874592, -1.185588 )     3.04862427
  WF centre and spread    4  (  0.052148, -1.978368, -1.208376 )     3.03787372
  WF centre and spread    5  (  0.000828,  1.846186,  1.209149 )     3.04907789
  WF centre and spread    6  ( -0.001015,  1.842874,  1.209011 )     3.05848458
  WF centre and spread    7  ( -0.000000, -5.304769, -1.208410 )     3.23916483
  WF centre and spread    8  ( -2.430121, -1.127858,  1.208408 )     3.23964846
  Sum of centres and spreads ( -2.430410, -6.431745,  0.000006 )    24.73182127
 
     50    -0.636E-05     0.0023938278       24.7318222026       0.24  <-- CONV
        O_D=      0.0319564 O_OD=      0.3472694 O_TOT=     24.7318222 <-- SPRD
 Delta: O_D= -0.1261492E-05 O_OD= -0.5101779E-05 O_TOT= -0.6363271E-05 <-- DLTA
 ------------------------------------------------------------------------------
 Cycle:     51
  WF centre and spread    1  (  0.000181,  2.039445,  1.207073 )     3.01029168
  WF centre and spread    2  ( -0.026216, -1.874649, -1.231256 )     3.04859982
  WF centre and spread    3  ( -0.026208, -1.874578, -1.185594 )     3.04861660
  WF centre and spread    4  (  0.052144, -1.978398, -1.208377 )     3.03779487
  WF centre and spread    5  (  0.000829,  1.846188,  1.209149 )     3.04907333
  WF centre and spread    6  ( -0.001017,  1.842875,  1.209012 )     3.05847975
  WF centre and spread    7  (  0.000000, -5.304766, -1.208409 )     3.23924539
  WF centre and spread    8  ( -2.430121, -1.127861,  1.208408 )     3.23971217
  Sum of centres and spreads ( -2.430409, -6.431745,  0.000006 )    24.73181361
 
     51    -0.765E-05     0.0024019100       24.7318145487       0.24  <-- CONV
        O_D=      0.0319559 O_OD=      0.3472623 O_TOT=     24.7318145 <-- SPRD
 Delta: O_D= -0.5421907E-06 O_OD= -0.7111711E-05 O_TOT= -0.7653901E-05 <-- DLTA
 ------------------------------------------------------------------------------
 Cycle:     52
  WF centre and spread    1  (  0.000181,  2.039443,  1.207074 )     3.01022248
  WF centre and spread    2  ( -0.026211, -1.874627, -1.231249 )     3.04859391
  WF centre and spread    3  ( -0.026205, -1.874555, -1.185602 )     3.04860141
  WF centre and spread    4  (  0.052136, -1.978444, -1.208378 )     3.03769511
  WF centre and spread    5  (  0.000830,  1.846190,  1.209150 )     3.04906083
  WF centre and spread    6  ( -0.001019,  1.842877,  1.209012 )     3.05846696
  WF centre and spread    7  ( -0.000000, -5.304762, -1.208408 )     3.23935852
  WF centre and spread    8  ( -2.430121, -1.127864,  1.208407 )     3.23980587
  Sum of centres and spreads ( -2.430409, -6.431744,  0.000008 )    24.73180508
 
     52    -0.853E-05     0.0026384295       24.7318060164       0.24  <-- CONV
        O_D=      0.0319567 O_OD=      0.3472530 O_TOT=     24.7318060 <-- SPRD
 Delta: O_D=  0.7786833E-06 O_OD= -0.9311047E-05 O_TOT= -0.8532364E-05 <-- DLTA
 ------------------------------------------------------------------------------
 Cycle:     53
  WF centre and spread    1  (  0.000180,  2.039441,  1.207075 )     3.01016656
  WF centre and spread    2  ( -0.026204, -1.874598, -1.231239 )     3.04858793
  WF centre and spread    3  ( -0.026199, -1.874525, -1.185612 )     3.04858755
  WF centre and spread    4  (  0.052125, -1.978503, -1.208378 )     3.03760597
  WF centre and spread    5  (  0.000831,  1.846191,  1.209150 )     3.04904712
  WF centre and spread    6  ( -0.001020,  1.842878,  1.209012 )     3.05845330
  WF centre and spread    7  ( -0.000000, -5.304759, -1.208406 )     3.23945864
  WF centre and spread    8  ( -2.430122, -1.127867,  1.208407 )     3.23988924
  Sum of centres and spreads ( -2.430409, -6.431743,  0.000009 )    24.73179632
 
     53    -0.877E-05     0.0027069499       24.7317972499       0.25  <-- CONV
        O_D=      0.0319587 O_OD=      0.3472422 O_TOT=     24.7317972 <-- SPRD
 Delta: O_D=  0.2040059E-05 O_OD= -0.1080655E-04 O_TOT= -0.8766494E-05 <-- DLTA
 ------------------------------------------------------------------------------
 Cycle:     54
  WF centre and spread    1  (  0.000180,  2.039441,  1.207076 )     3.01014185
  WF centre and spread    2  ( -0.026195, -1.874562, -1.231225 )     3.04858910
  WF centre and spread    3  ( -0.026191, -1.874489, -1.185626 )     3.04858344
  WF centre and spread    4  (  0.052108, -1.978577, -1.208378 )     3.03754898
  WF centre and spread    5  (  0.000831,  1.846191,  1.209149 )     3.04903975
  WF centre and spread    6  ( -0.001020,  1.842878,  1.209012 )     3.05844671
  WF centre and spread    7  (  0.000000, -5.304758, -1.208406 )     3.23950890
  WF centre and spread    8  ( -2.430122, -1.127869,  1.208407 )     3.23992870
  Sum of centres and spreads ( -2.430410, -6.431744,  0.000009 )    24.73178744
 
     54    -0.888E-05     0.0027072367       24.7317883741       0.25  <-- CONV
        O_D=      0.0319611 O_OD=      0.3472308 O_TOT=     24.7317884 <-- SPRD
 Delta: O_D=  0.2449663E-05 O_OD= -0.1132542E-04 O_TOT= -0.8875761E-05 <-- DLTA
 ------------------------------------------------------------------------------
 Cycle:     55
  WF centre and spread    1  (  0.000180,  2.039442,  1.207077 )     3.01015941
  WF centre and spread    2  ( -0.026194, -1.874559, -1.231224 )     3.04859304
  WF centre and spread    3  ( -0.026190, -1.874486, -1.185627 )     3.04858916
  WF centre and spread    4  (  0.052105, -1.978583, -1.208378 )     3.03756777
  WF centre and spread    5  (  0.000830,  1.846191,  1.209149 )     3.04904342
  WF centre and spread    6  ( -0.001019,  1.842878,  1.209012 )     3.05845080
  WF centre and spread    7  (  0.000000, -5.304759, -1.208406 )     3.23947560
  WF centre and spread    8  ( -2.430122, -1.127868,  1.208407 )     3.23989961
  Sum of centres and spreads ( -2.430410, -6.431744,  0.000009 )    24.73177882
 
     55    -0.862E-05     0.0038245116       24.7317797575       0.25  <-- CONV
        O_D=      0.0319592 O_OD=      0.3472242 O_TOT=     24.7317798 <-- SPRD
 Delta: O_D= -0.1949336E-05 O_OD= -0.6667300E-05 O_TOT= -0.8616636E-05 <-- DLTA
 ------------------------------------------------------------------------------
 Cycle:     56
  WF centre and spread    1  (  0.000180,  2.039444,  1.207078 )     3.01020940
  WF centre and spread    2  ( -0.026192, -1.874549, -1.231219 )     3.04860430
  WF centre and spread    3  ( -0.026186, -1.874477, -1.185631 )     3.04860571
  WF centre and spread    4  (  0.052097, -1.978603, -1.208378 )     3.03762050
  WF centre and spread    5  (  0.000828,  1.846190,  1.209147 )     3.04905389
  WF centre and spread    6  ( -0.001016,  1.842877,  1.209010 )     3.05846231
  WF centre and spread    7  (  0.000000, -5.304761, -1.208407 )     3.23938915
  WF centre and spread    8  ( -2.430121, -1.127866,  1.208407 )     3.23982477
  Sum of centres and spreads ( -2.430410, -6.431745,  0.000008 )    24.73177003
 
     56    -0.879E-05     0.0026974142       24.7317709661       0.26  <-- CONV
        O_D=      0.0319576 O_OD=      0.3472170 O_TOT=     24.7317710 <-- SPRD
 Delta: O_D= -0.1624335E-05 O_OD= -0.7166978E-05 O_TOT= -0.8791312E-05 <-- DLTA
 ------------------------------------------------------------------------------
 Cycle:     57
  WF centre and spread    1  (  0.000180,  2.039446,  1.207080 )     3.01027395
  WF centre and spread    2  ( -0.026188, -1.874533, -1.231212 )     3.04861577
  WF centre and spread    3  ( -0.026181, -1.874462, -1.185637 )     3.04862523
  WF centre and spread    4  (  0.052086, -1.978635, -1.208377 )     3.03768595
  WF centre and spread    5  (  0.000825,  1.846188,  1.209146 )     3.04906385
  WF centre and spread    6  ( -0.001012,  1.842875,  1.209009 )     3.05847343
  WF centre and spread    7  (  0.000000, -5.304764, -1.208408 )     3.23928562
  WF centre and spread    8  ( -2.430121, -1.127863,  1.208407 )     3.23973772
  Sum of centres and spreads ( -2.430410, -6.431747,  0.000007 )    24.73176152
 
     57    -0.851E-05     0.0027076128       24.7317624526       0.26  <-- CONV
        O_D=      0.0319575 O_OD=      0.3472085 O_TOT=     24.7317625 <-- SPRD
 Delta: O_D= -0.2592069E-07 O_OD= -0.8487596E-05 O_TOT= -0.8513517E-05 <-- DLTA
 ------------------------------------------------------------------------------
 Cycle:     58
  WF centre and spread    1  (  0.000179,  2.039448,  1.207081 )     3.01033062
  WF centre and spread    2  ( -0.026183, -1.874513, -1.231204 )     3.04862152
  WF centre and spread    3  ( -0.026174, -1.874442, -1.185645 )     3.04863995
  WF centre and spread    4  (  0.052072, -1.978674, -1.208376 )     3.03773782
  WF centre and spread    5  (  0.000823,  1.846187,  1.209144 )     3.04906769
  WF centre and spread    6  ( -0.001009,  1.842873,  1.209007 )     3.05847802
  WF centre and spread    7  (  0.000000, -5.304768, -1.208409 )     3.23920447
  WF centre and spread    8  ( -2.430121, -1.127860,  1.208408 )     3.23967369
  Sum of centres and spreads ( -2.430412, -6.431748,  0.000006 )    24.73175378
 
     58    -0.774E-05     0.0026465894       24.7317547121       0.26  <-- CONV
        O_D=      0.0319587 O_OD=      0.3471996 O_TOT=     24.7317547 <-- SPRD
 Delta: O_D=  0.1150609E-05 O_OD= -0.8891162E-05 O_TOT= -0.7740553E-05 <-- DLTA
 ------------------------------------------------------------------------------
 Cycle:     59
  WF centre and spread    1  (  0.000179,  2.039450,  1.207083 )     3.01036349
  WF centre and spread    2  ( -0.026178, -1.874491, -1.231195 )     3.04862334
  WF centre and spread    3  ( -0.026168, -1.874420, -1.185653 )     3.04864901
  WF centre and spread    4  (  0.052060, -1.978717, -1.208376 )     3.03775860
  WF centre and spread    5  (  0.000821,  1.846186,  1.209143 )     3.04906703
  WF centre and spread    6  ( -0.001007,  1.842872,  1.209006 )     3.05847766
  WF centre and spread    7  ( -0.000000, -5.304770, -1.208409 )     3.23916309
  WF centre and spread    8  ( -2.430121, -1.127858,  1.208408 )     3.23964511
  Sum of centres and spreads ( -2.430413, -6.431748,  0.000006 )    24.73174732
 
     59    -0.646E-05     0.0024179764       24.7317482551       0.27  <-- CONV
        O_D=      0.0319602 O_OD=      0.3471917 O_TOT=     24.7317483 <-- SPRD
 Delta: O_D=  0.1512306E-05 O_OD= -0.7969281E-05 O_TOT= -0.6456975E-05 <-- DLTA
 ------------------------------------------------------------------------------
 Cycle:     60
  WF centre and spread    1  (  0.000179,  2.039450,  1.207086 )     3.01038295
  WF centre and spread    2  ( -0.026169, -1.874457, -1.231182 )     3.04863067
  WF centre and spread    3  ( -0.026158, -1.874386, -1.185666 )     3.04866257
[...]
  WF centre and spread    3  ( -0.023801, -1.866809, -1.188753 )     3.05013421
  WF centre and spread    4  (  0.047246, -1.994124, -1.208379 )     3.03126342
  WF centre and spread    5  (  0.000591,  1.846199,  1.208937 )     3.04902524
  WF centre and spread    6  ( -0.000730,  1.842844,  1.208840 )     3.05854842
  WF centre and spread    7  (  0.000000, -5.304764, -1.208408 )     3.23916654
  WF centre and spread    8  ( -2.430121, -1.127864,  1.208407 )     3.23950177
  Sum of centres and spreads ( -2.430494, -6.431923,  0.000005 )    24.72798802
 
    484    -0.979E-05     0.0028148480       24.7279889504       1.55  <-- CONV
        O_D=      0.0320451 O_OD=      0.3433475 O_TOT=     24.7279890 <-- SPRD
 Delta: O_D=  0.2439311E-06 O_OD= -0.1003729E-04 O_TOT= -0.9793362E-05 <-- DLTA
 ------------------------------------------------------------------------------
 Cycle:    485
  WF centre and spread    1  (  0.000132,  2.039460,  1.207458 )     3.01018629
  WF centre and spread    2  ( -0.023801, -1.866838, -1.228083 )     3.05014387
  WF centre and spread    3  ( -0.023790, -1.866778, -1.188766 )     3.05015006
  WF centre and spread    4  (  0.047225, -1.994183, -1.208380 )     3.03118143
  WF centre and spread    5  (  0.000592,  1.846200,  1.208937 )     3.04903657
  WF centre and spread    6  ( -0.000731,  1.842844,  1.208840 )     3.05855588
  WF centre and spread    7  (  0.000000, -5.304764, -1.208408 )     3.23919397
  WF centre and spread    8  ( -2.430121, -1.127864,  1.208407 )     3.23952910
  Sum of centres and spreads ( -2.430494, -6.431923,  0.000006 )    24.72797716
 
    485    -0.109E-04     0.0029531065       24.7279780930       1.55  <-- CONV
        O_D=      0.0320477 O_OD=      0.3433340 O_TOT=     24.7279781 <-- SPRD
 Delta: O_D=  0.2595857E-05 O_OD= -0.1345329E-04 O_TOT= -0.1085744E-04 <-- DLTA
 ------------------------------------------------------------------------------
 Cycle:    486
  WF centre and spread    1  (  0.000132,  2.039459,  1.207459 )     3.01017172
  WF centre and spread    2  ( -0.023788, -1.866803, -1.228068 )     3.05015552
  WF centre and spread    3  ( -0.023777, -1.866743, -1.188781 )     3.05016001
  WF centre and spread    4  (  0.047200, -1.994252, -1.208380 )     3.03112966
  WF centre and spread    5  (  0.000591,  1.846200,  1.208936 )     3.04904108
  WF centre and spread    6  ( -0.000731,  1.842844,  1.208840 )     3.05855934
  WF centre and spread    7  (  0.000000, -5.304764, -1.208408 )     3.23920752
  WF centre and spread    8  ( -2.430121, -1.127865,  1.208407 )     3.23954209
  Sum of centres and spreads ( -2.430495, -6.431923,  0.000006 )    24.72796694
 
    486    -0.102E-04     0.0030006924       24.7279678719       1.56  <-- CONV
        O_D=      0.0320508 O_OD=      0.3433207 O_TOT=     24.7279679 <-- SPRD
 Delta: O_D=  0.3094174E-05 O_OD= -0.1331523E-04 O_TOT= -0.1022105E-04 <-- DLTA
 ------------------------------------------------------------------------------
 Cycle:    487
  WF centre and spread    1  (  0.000132,  2.039460,  1.207459 )     3.01018410
  WF centre and spread    2  ( -0.023786, -1.866800, -1.228066 )     3.05015172
  WF centre and spread    3  ( -0.023776, -1.866740, -1.188783 )     3.05015692
  WF centre and spread    4  (  0.047196, -1.994259, -1.208380 )     3.03114583
  WF centre and spread    5  (  0.000591,  1.846200,  1.208936 )     3.04903705
  WF centre and spread    6  ( -0.000730,  1.842844,  1.208840 )     3.05855708
  WF centre and spread    7  (  0.000000, -5.304764, -1.208408 )     3.23919501
  WF centre and spread    8  ( -2.430121, -1.127865,  1.208407 )     3.23952905
  Sum of centres and spreads ( -2.430494, -6.431924,  0.000006 )    24.72795676
 
    487    -0.102E-04     0.0040932362       24.7279576972       1.56  <-- CONV
        O_D=      0.0320480 O_OD=      0.3433133 O_TOT=     24.7279577 <-- SPRD
 Delta: O_D= -0.2781108E-05 O_OD= -0.7393659E-05 O_TOT= -0.1017477E-04 <-- DLTA
 ------------------------------------------------------------------------------
 Cycle:    488
  WF centre and spread    1  (  0.000132,  2.039464,  1.207460 )     3.01021961
  WF centre and spread    2  ( -0.023783, -1.866790, -1.228061 )     3.05014045
  WF centre and spread    3  ( -0.023772, -1.866731, -1.188788 )     3.05014782
  WF centre and spread    4  (  0.047186, -1.994282, -1.208379 )     3.03119099
  WF centre and spread    5  (  0.000589,  1.846199,  1.208935 )     3.04902539
  WF centre and spread    6  ( -0.000727,  1.842843,  1.208839 )     3.05855013
  WF centre and spread    7  (  0.000000, -5.304764, -1.208408 )     3.23916923
  WF centre and spread    8  ( -2.430121, -1.127864,  1.208407 )     3.23950228
  Sum of centres and spreads ( -2.430495, -6.431925,  0.000005 )    24.72794590
 
    488    -0.109E-04     0.0029982676       24.7279468344       1.56  <-- CONV
        O_D=      0.0320457 O_OD=      0.3433047 O_TOT=     24.7279468 <-- SPRD
 Delta: O_D= -0.2274031E-05 O_OD= -0.8588709E-05 O_TOT= -0.1086274E-04 <-- DLTA
 ------------------------------------------------------------------------------
 Cycle:    489
  WF centre and spread    1  (  0.000131,  2.039469,  1.207461 )     3.01026213
  WF centre and spread    2  ( -0.023777, -1.866776, -1.228053 )     3.05012191
  WF centre and spread    3  ( -0.023766, -1.866717, -1.188795 )     3.05013257
  WF centre and spread    4  (  0.047172, -1.994314, -1.208379 )     3.03124219
  WF centre and spread    5  (  0.000587,  1.846199,  1.208934 )     3.04900636
  WF centre and spread    6  ( -0.000724,  1.842843,  1.208838 )     3.05853641
  WF centre and spread    7  (  0.000001, -5.304765, -1.208409 )     3.23915063
  WF centre and spread    8  ( -2.430120, -1.127864,  1.208407 )     3.23948389
  Sum of centres and spreads ( -2.430496, -6.431926,  0.000005 )    24.72793609
 
    489    -0.981E-05     0.0029550236       24.7279370258       1.56  <-- CONV
        O_D=      0.0320460 O_OD=      0.3432946 O_TOT=     24.7279370 <-- SPRD
 Delta: O_D=  0.3116381E-06 O_OD= -0.1012028E-04 O_TOT= -0.9808638E-05 <-- DLTA
 ------------------------------------------------------------------------------
 Cycle:    490
  WF centre and spread    1  (  0.000131,  2.039473,  1.207462 )     3.01029864
  WF centre and spread    2  ( -0.023770, -1.866757, -1.228044 )     3.05009967
  WF centre and spread    3  ( -0.023758, -1.866699, -1.188803 )     3.05011402
  WF centre and spread    4  (  0.047155, -1.994355, -1.208378 )     3.03128086
  WF centre and spread    5  (  0.000585,  1.846198,  1.208933 )     3.04898355
  WF centre and spread    6  ( -0.000721,  1.842842,  1.208837 )     3.05851785
  WF centre and spread    7  (  0.000001, -5.304765, -1.208408 )     3.23914907
  WF centre and spread    8  ( -2.430121, -1.127864,  1.208407 )     3.23948357
  Sum of centres and spreads ( -2.430498, -6.431927,  0.000005 )    24.72792722
 
    490    -0.887E-05     0.0028183162       24.7279281547       1.57  <-- CONV
        O_D=      0.0320470 O_OD=      0.3432848 O_TOT=     24.7279282 <-- SPRD
 Delta: O_D=  0.9379757E-06 O_OD= -0.9809078E-05 O_TOT= -0.8871103E-05 <-- DLTA
 ------------------------------------------------------------------------------
 Cycle:    491
  WF centre and spread    1  (  0.000131,  2.039476,  1.207463 )     3.01031963
  WF centre and spread    2  ( -0.023762, -1.866734, -1.228034 )     3.05008344
  WF centre and spread    3  ( -0.023750, -1.866677, -1.188813 )     3.05010073
  WF centre and spread    4  (  0.047137, -1.994401, -1.208378 )     3.03129405
  WF centre and spread    5  (  0.000584,  1.846197,  1.208932 )     3.04896564
  WF centre and spread    6  ( -0.000719,  1.842841,  1.208836 )     3.05850246
  WF centre and spread    7  (  0.000001, -5.304765, -1.208408 )     3.23915865
  WF centre and spread    8  ( -2.430121, -1.127864,  1.208407 )     3.23949464
  Sum of centres and spreads ( -2.430500, -6.431927,  0.000005 )    24.72791925
 
    491    -0.797E-05     0.0026403761       24.7279201871       1.57  <-- CONV
        O_D=      0.0320493 O_OD=      0.3432745 O_TOT=     24.7279202 <-- SPRD
 Delta: O_D=  0.2335511E-05 O_OD= -0.1030313E-04 O_TOT= -0.7967617E-05 <-- DLTA
 ------------------------------------------------------------------------------
 Cycle:    492
  WF centre and spread    1  (  0.000131,  2.039477,  1.207464 )     3.01032849
  WF centre and spread    2  ( -0.023750, -1.866702, -1.228019 )     3.05008115
  WF centre and spread    3  ( -0.023737, -1.866645, -1.188827 )     3.05010028
  WF centre and spread    4  (  0.047111, -1.994468, -1.208378 )     3.03128042
  WF centre and spread    5  (  0.000582,  1.846197,  1.208931 )     3.04895851
  WF centre and spread    6  ( -0.000718,  1.842841,  1.208835 )     3.05849639
  WF centre and spread    7  (  0.000001, -5.304765, -1.208408 )     3.23916402
  WF centre and spread    8  ( -2.430122, -1.127864,  1.208407 )     3.23950061
  Sum of centres and spreads ( -2.430501, -6.431928,  0.000006 )    24.72790986
 
    492    -0.939E-05     0.0026768918       24.7279107983       1.57  <-- CONV
        O_D=      0.0320522 O_OD=      0.3432622 O_TOT=     24.7279108 <-- SPRD
 Delta: O_D=  0.2886479E-05 O_OD= -0.1227524E-04 O_TOT= -0.9388760E-05 <-- DLTA
 ------------------------------------------------------------------------------
 Cycle:    493
  WF centre and spread    1  (  0.000131,  2.039476,  1.207464 )     3.01032129
  WF centre and spread    2  ( -0.023748, -1.866700, -1.228018 )     3.05009033
  WF centre and spread    3  ( -0.023736, -1.866642, -1.188828 )     3.05010852
  WF centre and spread    4  (  0.047110, -1.994472, -1.208378 )     3.03126696
  WF centre and spread    5  (  0.000582,  1.846197,  1.208931 )     3.04896584
  WF centre and spread    6  ( -0.000718,  1.842841,  1.208835 )     3.05850295
  WF centre and spread    7  (  0.000001, -5.304765, -1.208408 )     3.23915437
  WF centre and spread    8  ( -2.430121, -1.127863,  1.208407 )     3.23949024
  Sum of centres and spreads ( -2.430500, -6.431928,  0.000005 )    24.72790051
 
    493    -0.935E-05     0.0040655809       24.7279014439       1.58  <-- CONV
        O_D=      0.0320496 O_OD=      0.3432555 O_TOT=     24.7279014 <-- SPRD
 Delta: O_D= -0.2603095E-05 O_OD= -0.6751295E-05 O_TOT= -0.9354390E-05 <-- DLTA
 ------------------------------------------------------------------------------
 Cycle:    494
  WF centre and spread    1  (  0.000131,  2.039473,  1.207464 )     3.01030146
  WF centre and spread    2  ( -0.023745, -1.866693, -1.228016 )     3.05011207
  WF centre and spread    3  ( -0.023733, -1.866635, -1.188832 )     3.05012793
  WF centre and spread    4  (  0.047105, -1.994485, -1.208378 )     3.03123015
  WF centre and spread    5  (  0.000583,  1.846198,  1.208931 )     3.04898349
  WF centre and spread    6  ( -0.000719,  1.842842,  1.208835 )     3.05851840
  WF centre and spread    7  (  0.000001, -5.304765, -1.208408 )     3.23914244
  WF centre and spread    8  ( -2.430121, -1.127863,  1.208407 )     3.23947660
  Sum of centres and spreads ( -2.430498, -6.431928,  0.000005 )    24.72789253
 
    494    -0.798E-05     0.0026754224       24.7278934689       1.58  <-- CONV
        O_D=      0.0320475 O_OD=      0.3432496 O_TOT=     24.7278935 <-- SPRD
 Delta: O_D= -0.2092789E-05 O_OD= -0.5882261E-05 O_TOT= -0.7975051E-05 <-- DLTA
 ------------------------------------------------------------------------------
 Cycle:    495
  WF centre and spread    1  (  0.000131,  2.039469,  1.207465 )     3.01026566
  WF centre and spread    2  ( -0.023740, -1.866679, -1.228010 )     3.05013996
  WF centre and spread    3  ( -0.023728, -1.866620, -1.188837 )     3.05015247
  WF centre and spread    4  (  0.047097, -1.994511, -1.208379 )     3.03116410
  WF centre and spread    5  (  0.000584,  1.846199,  1.208931 )     3.04900546
  WF centre and spread    6  ( -0.000721,  1.842842,  1.208836 )     3.05853660
  WF centre and spread    7  (  0.000001, -5.304765, -1.208409 )     3.23914340
  WF centre and spread    8  ( -2.430120, -1.127864,  1.208407 )     3.23947601
  Sum of centres and spreads ( -2.430497, -6.431928,  0.000005 )    24.72788366
 
    495    -0.888E-05     0.0026411892       24.7278845927       1.58  <-- CONV
        O_D=      0.0320471 O_OD=      0.3432411 O_TOT=     24.7278846 <-- SPRD
 Delta: O_D= -0.4346704E-06 O_OD= -0.8441535E-05 O_TOT= -0.8876205E-05 <-- DLTA
 ------------------------------------------------------------------------------
 Cycle:    496
  WF centre and spread    1  (  0.000131,  2.039464,  1.207466 )     3.01022289
  WF centre and spread    2  ( -0.023732, -1.866657, -1.228002 )     3.05016481
  WF centre and spread    3  ( -0.023720, -1.866598, -1.188846 )     3.05017394
  WF centre and spread    4  (  0.047083, -1.994552, -1.208379 )     3.03108111
  WF centre and spread    5  (  0.000586,  1.846200,  1.208932 )     3.04902369
  WF centre and spread    6  ( -0.000723,  1.842843,  1.208836 )     3.05855016
  WF centre and spread    7  (  0.000000, -5.304764, -1.208408 )     3.23916271
  WF centre and spread    8  ( -2.430121, -1.127864,  1.208407 )     3.23949452
  Sum of centres and spreads ( -2.430496, -6.431928,  0.000005 )    24.72787384
 
    496    -0.981E-05     0.0028174568       24.7278747784       1.59  <-- CONV
        O_D=      0.0320473 O_OD=      0.3432311 O_TOT=     24.7278748 <-- SPRD
 Delta: O_D=  0.2267033E-06 O_OD= -0.1004102E-04 O_TOT= -0.9814314E-05 <-- DLTA
 ------------------------------------------------------------------------------
 Cycle:    497
  WF centre and spread    1  (  0.000131,  2.039461,  1.207467 )     3.01018588
  WF centre and spread    2  ( -0.023720, -1.866626, -1.227989 )     3.05018387
  WF centre and spread    3  ( -0.023709, -1.866566, -1.188859 )     3.05019016
  WF centre and spread    4  (  0.047062, -1.994611, -1.208380 )     3.03099911
  WF centre and spread    5  (  0.000586,  1.846200,  1.208932 )     3.04903533
  WF centre and spread    6  ( -0.000725,  1.842843,  1.208836 )     3.05855784
  WF centre and spread    7  (  0.000000, -5.304764, -1.208408 )     3.23918948
  WF centre and spread    8  ( -2.430121, -1.127864,  1.208407 )     3.23952128
  Sum of centres and spreads ( -2.430496, -6.431928,  0.000006 )    24.72786296
 
    497    -0.109E-04     0.0029569781       24.7278638975       1.59  <-- CONV
        O_D=      0.0320499 O_OD=      0.3432176 O_TOT=     24.7278639 <-- SPRD
 Delta: O_D=  0.2585934E-05 O_OD= -0.1346681E-04 O_TOT= -0.1088087E-04 <-- DLTA
 ------------------------------------------------------------------------------
 Cycle:    498
  WF centre and spread    1  (  0.000131,  2.039459,  1.207468 )     3.01017134
  WF centre and spread    2  ( -0.023707, -1.866591, -1.227974 )     3.05019564
  WF centre and spread    3  ( -0.023696, -1.866532, -1.188874 )     3.05020028
  WF centre and spread    4  (  0.047036, -1.994680, -1.208380 )     3.03094740
  WF centre and spread    5  (  0.000586,  1.846200,  1.208931 )     3.04904000
  WF centre and spread    6  ( -0.000725,  1.842843,  1.208836 )     3.05856142
  WF centre and spread    7  (  0.000000, -5.304764, -1.208408 )     3.23920267
  WF centre and spread    8  ( -2.430121, -1.127865,  1.208407 )     3.23953398
  Sum of centres and spreads ( -2.430496, -6.431929,  0.000006 )    24.72785272
 
    498    -0.102E-04     0.0030042018       24.7278536588       1.59  <-- CONV
        O_D=      0.0320530 O_OD=      0.3432043 O_TOT=     24.7278537 <-- SPRD
 Delta: O_D=  0.3097120E-05 O_OD= -0.1333580E-04 O_TOT= -0.1023868E-04 <-- DLTA
 ------------------------------------------------------------------------------
 Cycle:    499
  WF centre and spread    1  (  0.000131,  2.039461,  1.207468 )     3.01018372
  WF centre and spread    2  ( -0.023706, -1.866588, -1.227973 )     3.05019174
  WF centre and spread    3  ( -0.023695, -1.866529, -1.188876 )     3.05019706
  WF centre and spread    4  (  0.047033, -1.994687, -1.208380 )     3.03096359
  WF centre and spread    5  (  0.000585,  1.846200,  1.208931 )     3.04903587
  WF centre and spread    6  ( -0.000724,  1.842843,  1.208836 )     3.05855909
  WF centre and spread    7  (  0.000000, -5.304764, -1.208408 )     3.23919035
  WF centre and spread    8  ( -2.430121, -1.127865,  1.208407 )     3.23952110
  Sum of centres and spreads ( -2.430496, -6.431929,  0.000006 )    24.72784253
 
    499    -0.102E-04     0.0040977112       24.7278434612       1.59  <-- CONV
        O_D=      0.0320502 O_OD=      0.3431969 O_TOT=     24.7278435 <-- SPRD
 Delta: O_D= -0.2788032E-05 O_OD= -0.7409613E-05 O_TOT= -0.1019765E-04 <-- DLTA
 ------------------------------------------------------------------------------
 Cycle:    500
  WF centre and spread    1  (  0.000131,  2.039464,  1.207469 )     3.01021924
  WF centre and spread    2  ( -0.023702, -1.866579, -1.227967 )     3.05018019
  WF centre and spread    3  ( -0.023691, -1.866520, -1.188881 )     3.05018762
  WF centre and spread    4  (  0.047023, -1.994710, -1.208379 )     3.03100881
  WF centre and spread    5  (  0.000584,  1.846200,  1.208930 )     3.04902395
  WF centre and spread    6  ( -0.000721,  1.842842,  1.208835 )     3.05855195
  WF centre and spread    7  (  0.000000, -5.304764, -1.208408 )     3.23916510
  WF centre and spread    8  ( -2.430121, -1.127864,  1.208407 )     3.23949479
  Sum of centres and spreads ( -2.430497, -6.431930,  0.000005 )    24.72783164
 
    500    -0.109E-04     0.0030017381       24.7278325726       1.60  <-- CONV
        O_D=      0.0320479 O_OD=      0.3431883 O_TOT=     24.7278326 <-- SPRD
 Delta: O_D= -0.2265792E-05 O_OD= -0.8622731E-05 O_TOT= -0.1088852E-04 <-- DLTA
 ------------------------------------------------------------------------------

 Writing checkpoint file mp-23202.chk... done

 Final State
  WF centre and spread    1  (  0.000131,  2.039464,  1.207469 )     3.01021924
  WF centre and spread    2  ( -0.023702, -1.866579, -1.227967 )     3.05018019
  WF centre and spread    3  ( -0.023691, -1.866520, -1.188881 )     3.05018762
  WF centre and spread    4  (  0.047023, -1.994710, -1.208379 )     3.03100881
  WF centre and spread    5  (  0.000584,  1.846200,  1.208930 )     3.04902395
  WF centre and spread    6  ( -0.000721,  1.842842,  1.208835 )     3.05855195
  WF centre and spread    7  (  0.000000, -5.304764, -1.208408 )     3.23916510
  WF centre and spread    8  ( -2.430121, -1.127864,  1.208407 )     3.23949479
  Sum of centres and spreads ( -2.430497, -6.431930,  0.000005 )    24.72783164
 
         Spreads (Ang^2)       Omega I      =    24.352596382
        ================       Omega D      =     0.032047932
                               Omega OD     =     0.343188258
    Final Spread (Ang^2)       Omega Total  =    24.727832573
 ------------------------------------------------------------------------------
 Time for wannierise            1.589 (sec)

 Writing checkpoint file mp-23202.chk... done

 Time for plotting              0.000 (sec)
 Total Execution Time           2.204 (sec)

 *===========================================================================*
 |                             TIMING INFORMATION                            |
 *===========================================================================*
 |    Tag                                                Ncalls      Time (s)|
 |---------------------------------------------------------------------------|
 |kmesh: get                                        :         1         0.323|
 |overlap: allocate                                 :         1         0.002|
 |overlap: read                                     :         1         0.229|
 |wann: main                                        :         1         1.589|
 |plot: main                                        :         1         0.000|
 *---------------------------------------------------------------------------*
 
 All done: wannier90 exiting
