
     Program PWSCF v.7.1 starts on  3Jan2024 at 14:26:41 

     This program is part of the open-source Quantum ESPRESSO suite
     for quantum simulation of materials; please cite
         "P. Giannozzi et al., J. Phys.:Condens. Matter 21 395502 (2009);
         "P. Giannozzi et al., J. Phys.:Condens. Matter 29 465901 (2017);
         "P. Giannozzi et al., J. Chem. Phys. 152 154105 (2020);
          URL http://www.quantum-espresso.org", 
     in publications or presentations arising from this work. More details at
     http://www.quantum-espresso.org/quote

     Parallel version (MPI), running on     8 processors

     MPI processes distributed on     1 nodes
     248383 MiB available memory on the printing compute node when the environment starts
 
     Reading input from pw_mp-149_scf_k3000_E65.in
Warning: card &CELL ignored
Warning: card / ignored

     Current dimensions of program PWSCF are:
     Max number of different atomic species (ntypx) = 10
     Max number of k-points (npk) =  40000
     Max angular momentum in pseudopotentials (lmaxx) =  4
 
     R & G space division:  proc/nbgrp/npool/nimage =       8
     Subspace diagonalization in iterative solution of the eigenvalue problem:
     a serial algorithm will be used

 
     Parallelization info
     --------------------
     sticks:   dense  smooth     PW     G-vecs:    dense   smooth      PW
     Min         119     119     35                 2416     2416     392
     Max         120     120     36                 2419     2419     395
     Sum         955     955    283                19339    19339    3143
 
     Using Slab Decomposition
 


     bravais-lattice index     =            2
     lattice parameter (alat)  =      10.2871  a.u.
     unit-cell volume          =     272.1571 (a.u.)^3
     number of atoms/cell      =            2
     number of atomic types    =            1
     number of electrons       =         8.00
     number of Kohn-Sham states=            8
     kinetic-energy cutoff     =      65.0000  Ry
     charge density cutoff     =     260.0000  Ry
     scf convergence threshold =      1.0E-10
     mixing beta               =       0.7000
     number of iterations used =            8  plain     mixing
     Exchange-correlation= PBE
                           (   1   4   3   4   0   0   0)

     celldm(1)=  10.287106  celldm(2)=   0.000000  celldm(3)=   0.000000
     celldm(4)=   0.000000  celldm(5)=   0.000000  celldm(6)=   0.000000

     crystal axes: (cart. coord. in units of alat)
               a(1) = (  -0.500000   0.000000   0.500000 )  
               a(2) = (   0.000000   0.500000   0.500000 )  
               a(3) = (  -0.500000   0.500000   0.000000 )  

     reciprocal axes: (cart. coord. in units 2 pi/alat)
               b(1) = ( -1.000000 -1.000000  1.000000 )  
               b(2) = (  1.000000  1.000000  1.000000 )  
               b(3) = ( -1.000000  1.000000 -1.000000 )  


     PseudoPot. # 1 for Si read from file:
     /usr/scratch4/magr4985/MG/devEb/pseudo/SG15/Si.upf
     MD5 check sum: 748503c2319b9684642f75d0fea367ab
     Pseudo is Norm-conserving, Zval =  4.0
     Generated using ONCVPSP code by D. R. Hamann
     Using radial grid of  602 points,  4 beta functions with: 
                l(1) =   0
                l(2) =   0
                l(3) =   1
                l(4) =   1

     atomic species   valence    mass     pseudopotential
        Si             4.00    28.08550     Si( 1.00)

     48 Sym. Ops., with inversion, found (24 have fractional translation)



   Cartesian axes

     site n.     atom                  positions (alat units)
         1           Si  tau(   1) = (  -0.2500000   0.2500001   0.2500000  )
         2           Si  tau(   2) = (  -0.5000000   0.5000000   0.5000000  )

     number of k points=    72  Gaussian smearing, width (Ry)=  0.0005
                       cart. coord. in units 2pi/alat
        k(    1) = (   0.0000000   0.0000000   0.0000000), wk =   0.0011574
        k(    2) = (  -0.0833333   0.0833333  -0.0833333), wk =   0.0092593
        k(    3) = (  -0.1666667   0.1666667  -0.1666667), wk =   0.0092593
        k(    4) = (  -0.2500000   0.2500000  -0.2500000), wk =   0.0092593
        k(    5) = (  -0.3333333   0.3333333  -0.3333333), wk =   0.0092593
        k(    6) = (  -0.4166667   0.4166667  -0.4166667), wk =   0.0092593
        k(    7) = (   0.5000000  -0.5000000   0.5000000), wk =   0.0046296
        k(    8) = (   0.0000000   0.1666667   0.0000000), wk =   0.0069444
        k(    9) = (  -0.0833333   0.2500000  -0.0833333), wk =   0.0277778
        k(   10) = (  -0.1666667   0.3333333  -0.1666667), wk =   0.0277778
        k(   11) = (  -0.2500000   0.4166667  -0.2500000), wk =   0.0277778
        k(   12) = (  -0.3333333   0.5000000  -0.3333333), wk =   0.0277778
        k(   13) = (   0.5833333  -0.4166667   0.5833333), wk =   0.0277778
        k(   14) = (   0.5000000  -0.3333333   0.5000000), wk =   0.0277778
        k(   15) = (   0.4166667  -0.2500000   0.4166667), wk =   0.0277778
        k(   16) = (   0.3333333  -0.1666667   0.3333333), wk =   0.0277778
        k(   17) = (   0.2500000  -0.0833333   0.2500000), wk =   0.0277778
        k(   18) = (   0.1666667  -0.0000000   0.1666667), wk =   0.0138889
        k(   19) = (   0.0000000   0.3333333   0.0000000), wk =   0.0069444
        k(   20) = (  -0.0833333   0.4166667  -0.0833333), wk =   0.0277778
        k(   21) = (  -0.1666667   0.5000000  -0.1666667), wk =   0.0277778
        k(   22) = (  -0.2500000   0.5833333  -0.2500000), wk =   0.0277778
        k(   23) = (   0.6666667  -0.3333333   0.6666667), wk =   0.0277778
        k(   24) = (   0.5833333  -0.2500000   0.5833333), wk =   0.0277778
        k(   25) = (   0.5000000  -0.1666667   0.5000000), wk =   0.0277778
        k(   26) = (   0.4166667  -0.0833333   0.4166667), wk =   0.0277778
        k(   27) = (   0.3333333   0.0000000   0.3333333), wk =   0.0138889
        k(   28) = (   0.0000000   0.5000000   0.0000000), wk =   0.0069444
        k(   29) = (  -0.0833333   0.5833333  -0.0833333), wk =   0.0277778
        k(   30) = (  -0.1666667   0.6666667  -0.1666667), wk =   0.0277778
        k(   31) = (   0.7500000  -0.2500000   0.7500000), wk =   0.0277778
        k(   32) = (   0.6666667  -0.1666667   0.6666667), wk =   0.0277778
        k(   33) = (   0.5833333  -0.0833333   0.5833333), wk =   0.0277778
        k(   34) = (   0.5000000   0.0000000   0.5000000), wk =   0.0138889
        k(   35) = (   0.0000000   0.6666667   0.0000000), wk =   0.0069444
        k(   36) = (  -0.0833333   0.7500000  -0.0833333), wk =   0.0277778
        k(   37) = (   0.8333333  -0.1666667   0.8333333), wk =   0.0277778
        k(   38) = (   0.7500000  -0.0833333   0.7500000), wk =   0.0277778
        k(   39) = (   0.6666667  -0.0000000   0.6666667), wk =   0.0138889
        k(   40) = (   0.0000000   0.8333333   0.0000000), wk =   0.0069444
        k(   41) = (   0.9166667  -0.0833333   0.9166667), wk =   0.0277778
        k(   42) = (   0.8333333   0.0000000   0.8333333), wk =   0.0138889
        k(   43) = (   0.0000000  -1.0000000   0.0000000), wk =   0.0034722
        k(   44) = (  -0.1666667   0.3333333   0.0000000), wk =   0.0277778
        k(   45) = (  -0.2500000   0.4166667  -0.0833333), wk =   0.0555556
        k(   46) = (  -0.3333333   0.5000000  -0.1666667), wk =   0.0555556
        k(   47) = (   0.5833333  -0.4166667   0.7500000), wk =   0.0555556
        k(   48) = (   0.5000000  -0.3333333   0.6666667), wk =   0.0277778
        k(   49) = (  -0.1666667   0.5000000   0.0000000), wk =   0.0277778
        k(   50) = (  -0.2500000   0.5833333  -0.0833333), wk =   0.0555556
        k(   51) = (   0.6666667  -0.3333333   0.8333333), wk =   0.0555556
        k(   52) = (   0.5833333  -0.2500000   0.7500000), wk =   0.0555556
        k(   53) = (   0.5000000  -0.1666667   0.6666667), wk =   0.0555556
        k(   54) = (   0.4166667  -0.0833333   0.5833333), wk =   0.0555556
        k(   55) = (   0.3333333   0.0000000   0.5000000), wk =   0.0277778
        k(   56) = (  -0.1666667   0.6666667  -0.0000000), wk =   0.0277778
        k(   57) = (   0.7500000  -0.2500000   0.9166667), wk =   0.0555556
        k(   58) = (   0.6666667  -0.1666667   0.8333333), wk =   0.0555556
        k(   59) = (   0.5833333  -0.0833333   0.7500000), wk =   0.0555556
        k(   60) = (   0.5000000   0.0000000   0.6666667), wk =   0.0277778
        k(   61) = (   0.8333333  -0.1666667   1.0000000), wk =   0.0277778
        k(   62) = (   0.7500000  -0.0833333   0.9166667), wk =   0.0555556
        k(   63) = (   0.6666667   0.0000000   0.8333333), wk =   0.0277778
        k(   64) = (  -0.1666667  -1.0000000  -0.0000000), wk =   0.0138889
        k(   65) = (   0.6666667  -0.3333333   1.0000000), wk =   0.0277778
        k(   66) = (   0.5833333  -0.2500000   0.9166667), wk =   0.0555556
        k(   67) = (   0.5000000  -0.1666667   0.8333333), wk =   0.0277778
        k(   68) = (   0.6666667  -0.1666667   1.0000000), wk =   0.0277778
        k(   69) = (   0.5833333  -0.0833333   0.9166667), wk =   0.0555556
        k(   70) = (   0.5000000   0.0000000   0.8333333), wk =   0.0277778
        k(   71) = (  -0.3333333  -1.0000000   0.0000000), wk =   0.0138889
        k(   72) = (  -0.5000000  -1.0000000   0.0000000), wk =   0.0069444

     Dense  grid:    19339 G-vectors     FFT dimensions: (  40,  40,  40)

     Estimated max dynamical RAM per process >       4.75 MB

     Estimated total dynamical RAM >      38.04 MB

     Initial potential from superposition of free atoms

     starting charge       7.9075, renormalised to       8.0000
     Starting wfcs are random

     total cpu time spent up to now is        0.2 secs

     Self-consistent Calculation

     iteration #  1     ecut=    65.00 Ry     beta= 0.70
     ParO style diagonalization
     ethr =  5.00E-06,  avg # of iterations = 18.7

     total cpu time spent up to now is        2.7 secs

     total energy              =     -15.76395747 Ry
     estimated scf accuracy    <       0.05256822 Ry

     iteration #  2     ecut=    65.00 Ry     beta= 0.70
     ParO style diagonalization
     ethr =  6.57E-04,  avg # of iterations =  3.1

     total cpu time spent up to now is        3.2 secs

     total energy              =     -15.76631112 Ry
     estimated scf accuracy    <       0.00197382 Ry

     iteration #  3     ecut=    65.00 Ry     beta= 0.70
     ParO style diagonalization
     ethr =  2.47E-05,  avg # of iterations =  3.5

     total cpu time spent up to now is        3.7 secs

     total energy              =     -15.76637667 Ry
     estimated scf accuracy    <       0.00004599 Ry

     iteration #  4     ecut=    65.00 Ry     beta= 0.70
     ParO style diagonalization
     ethr =  5.75E-07,  avg # of iterations =  4.2

     total cpu time spent up to now is        4.3 secs

     total energy              =     -15.76637903 Ry
     estimated scf accuracy    <       0.00000018 Ry

     iteration #  5     ecut=    65.00 Ry     beta= 0.70
     ParO style diagonalization
     ethr =  2.28E-09,  avg # of iterations =  5.6

     total cpu time spent up to now is        5.1 secs

     total energy              =     -15.76637910 Ry
     estimated scf accuracy    <          8.6E-09 Ry

     iteration #  6     ecut=    65.00 Ry     beta= 0.70
     ParO style diagonalization
     ethr =  1.08E-10,  avg # of iterations =  4.7

     total cpu time spent up to now is        5.8 secs

     total energy              =     -15.76637910 Ry
     estimated scf accuracy    <          1.0E-10 Ry

     iteration #  7     ecut=    65.00 Ry     beta= 0.70
     ParO style diagonalization
     ethr =  1.27E-12,  avg # of iterations =  5.2

     total cpu time spent up to now is        6.5 secs

     End of self-consistent calculation

          k = 0.0000 0.0000 0.0000 (  2421 PWs)   bands (ev):

    -5.7616   6.1464   6.1464   6.1464   8.7038   8.7038   8.7038   9.4000

          k =-0.0833 0.0833-0.0833 (  2421 PWs)   bands (ev):

    -5.6712   5.2879   6.0048   6.0048   8.7296   8.9126   8.9126  10.0813

          k =-0.1667 0.1667-0.1667 (  2415 PWs)   bands (ev):

    -5.4029   3.7723   5.7023   5.7023   8.4592   9.3438   9.3439  11.5146

          k =-0.2500 0.2500-0.2500 (  2427 PWs)   bands (ev):

    -4.9676   2.2352   5.3966   5.3966   8.1322   9.6369   9.6369  12.9846

          k =-0.3333 0.3333-0.3333 (  2424 PWs)   bands (ev):

    -4.3950   0.8371   5.1585   5.1585   7.8640   9.6392   9.6392  13.9724

          k =-0.4167 0.4167-0.4167 (  2428 PWs)   bands (ev):

    -3.7804  -0.2841   5.0116   5.0116   7.6943   9.5284   9.5284  13.9325

          k = 0.5000-0.5000 0.5000 (  2392 PWs)   bands (ev):

    -3.4504  -0.7845   4.9624   4.9624   7.6367   9.4746   9.4746  13.8517

          k = 0.0000 0.1667 0.0000 (  2405 PWs)   bands (ev):

    -5.6410   5.4450   5.7226   5.7226   8.4298   9.2751   9.2751  10.0504

          k =-0.0833 0.2500-0.0833 (  2407 PWs)   bands (ev):

    -5.4314   4.2201   5.3630   5.5472   8.4481   9.3382   9.8075  10.9780

          k =-0.1667 0.3333-0.1667 (  2420 PWs)   bands (ev):

    -5.0502   2.7278   5.0533   5.2261   8.5591   9.3346  10.1899  11.5052

          k =-0.2500 0.4167-0.2500 (  2415 PWs)   bands (ev):

    -4.5182   1.3008   4.8455   4.8758   8.4049   9.4257  10.2145  12.0758

          k =-0.3333 0.5000-0.3333 (  2412 PWs)   bands (ev):

    -3.8980   0.0795   4.5821   4.7566   8.2358   9.3958  10.0223  13.1198

          k = 0.5833-0.4167 0.5833 (  2412 PWs)   bands (ev):

    -3.4128  -0.6832   4.3792   4.7871   8.1536   9.3984   9.8250  14.0339

          k = 0.5000-0.3333 0.5000 (  2410 PWs)   bands (ev):

    -3.5321  -0.5073   4.2851   4.9287   8.1795   9.5143   9.7155  14.1441

          k = 0.4167-0.2500 0.4167 (  2409 PWs)   bands (ev):

    -4.1080   0.4568   4.3128   5.1657   8.3123   9.6840   9.7215  13.5834

          k = 0.3333-0.1667 0.3333 (  2414 PWs)   bands (ev):

    -4.7110   1.7621   4.4721   5.4723   8.5393   9.6035   9.8707  12.6098

          k = 0.2500-0.0833 0.2500 (  2420 PWs)   bands (ev):

    -5.1963   3.2111   4.7750   5.7977   8.8249   9.3058   9.6552  11.8215

          k = 0.1667-0.0000 0.1667 (  2411 PWs)   bands (ev):

    -5.5213   4.5565   5.2940   6.0300   8.9513   9.0443   9.0970  10.8913

          k = 0.0000 0.3333 0.0000 (  2405 PWs)   bands (ev):

    -5.2808   4.0996   4.9685   4.9685   7.8464  10.3952  10.4643  10.4643

          k =-0.0833 0.4167-0.0833 (  2416 PWs)   bands (ev):

    -4.9559   3.0221   4.6204   4.6375   7.8642  10.0067  10.7974  11.0219

          k =-0.1667 0.5000-0.1667 (  2398 PWs)   bands (ev):

    -4.4713   1.7224   4.1688   4.4210   8.1002  10.1764  10.6377  11.1894

          k =-0.2500 0.5833-0.2500 (  2409 PWs)   bands (ev):

    -3.8684   0.4976   3.7319   4.3378   8.1424  10.3635  11.0126  11.1644

          k = 0.6667-0.3333 0.6667 (  2408 PWs)   bands (ev):

    -3.2908  -0.4282   3.3899   4.3910   8.1711  10.2230  10.7437  12.5233

          k = 0.5833-0.2500 0.5833 (  2404 PWs)   bands (ev):

    -3.1779  -0.5861   3.1782   4.5731   8.3122  10.1775  10.5202  14.0693

          k = 0.5000-0.1667 0.5000 (  2407 PWs)   bands (ev):

    -3.6717   0.1655   3.1235   4.8650   8.5726  10.2339  10.3565  13.3822

          k = 0.4167-0.0833 0.4167 (  2412 PWs)   bands (ev):

    -4.2908   1.3027   3.2695   5.2291   8.8995  10.1305  10.2901  12.2280

          k = 0.3333 0.0000 0.3333 (  2411 PWs)   bands (ev):

    -4.8188   2.4363   3.7588   5.5889   9.1513   9.6909   9.9622  11.7621

          k = 0.0000 0.5000 0.0000 (  2413 PWs)   bands (ev):

    -4.6870   2.6266   4.2786   4.2786   7.2732   9.2595  11.8616  11.8616

          k =-0.0833 0.5833-0.0833 (  2410 PWs)   bands (ev):

    -4.2534   1.7232   3.8157   4.0344   7.3556   8.9095  12.1415  12.3401

          k =-0.1667 0.6667-0.1667 (  2403 PWs)   bands (ev):

    -3.6824   0.7029   3.1867   3.9282   7.5715   9.3776  12.0039  12.3008

          k = 0.7500-0.2500 0.7500 (  2408 PWs)   bands (ev):

    -3.0640  -0.2146   2.6431   3.9665   7.6579  10.5663  11.8358  12.0281

          k = 0.6667-0.1667 0.6667 (  2397 PWs)   bands (ev):

    -2.7442  -0.6242   2.2829   4.1448   7.8349  11.5551  11.7353  12.2675

          k = 0.5833-0.0833 0.5833 (  2399 PWs)   bands (ev):

    -3.1162  -0.1355   2.1658   4.4466   8.1555  11.4392  11.5360  13.2683

          k = 0.5000 0.0000 0.5000 (  2395 PWs)   bands (ev):

    -3.7328   0.6808   2.4294   4.8348   8.5759  10.9116  11.2337  12.2395

          k = 0.0000 0.6667 0.0000 (  2397 PWs)   bands (ev):

    -3.8703   1.1415   3.7558   3.7558   6.8712   8.1289  13.3537  13.3537

          k =-0.0833 0.7500-0.0833 (  2405 PWs)   bands (ev):

    -3.3393   0.3607   3.2736   3.6145   7.0322   7.9991  13.6710  13.7221

          k = 0.8333-0.1667 0.8333 (  2404 PWs)   bands (ev):

    -2.7153  -0.4024   2.5510   3.6206   7.2048   8.8477  13.5446  13.5607

          k = 0.7500-0.0833 0.7500 (  2397 PWs)   bands (ev):

    -2.2517  -0.8887   1.9771   3.7729   7.3799  10.2833  13.1991  13.3939

          k = 0.6667-0.0000 0.6667 (  2390 PWs)   bands (ev):

    -2.5229  -0.6038   1.7766   4.0588   7.7039  11.9065  12.5843  13.1604

          k = 0.0000 0.8333 0.0000 (  2418 PWs)   bands (ev):

    -2.8478  -0.3000   3.4337   3.4337   6.7163   7.3178  14.9027  14.9027

          k = 0.9167-0.0833 0.9167 (  2408 PWs)   bands (ev):

    -2.2387  -0.9835   3.0052   3.4003   6.9164   7.4821  15.1503  15.2438

          k = 0.8333 0.0000 0.8333 (  2404 PWs)   bands (ev):

    -1.7880  -1.3840   2.3400   3.5164   7.0750   8.6745  14.6133  15.1334

          k = 0.0000-1.0000 0.0000 (  2450 PWs)   bands (ev):

    -1.6455  -1.6455   3.3251   3.3251   6.8538   6.8538  16.1818  16.1818

          k =-0.1667 0.3333 0.0000 (  2424 PWs)   bands (ev):

    -5.1646   3.4209   4.5311   5.4471   8.4745   9.6529  10.2763  11.0191

          k =-0.2500 0.4167-0.0833 (  2413 PWs)   bands (ev):

    -4.7313   2.1884   4.0008   5.1756   8.7481   9.6256  10.6803  11.0107

          k =-0.3333 0.5000-0.1667 (  2417 PWs)   bands (ev):

    -4.1604   0.8966   3.7309   4.8523   8.7790   9.5149  10.7378  11.6541

          k = 0.5833-0.4167 0.7500 (  2405 PWs)   bands (ev):

    -3.5444  -0.1843   3.6028   4.6090   8.7170   9.3334  10.6567  12.8610

          k = 0.5000-0.3333 0.6667 (  2412 PWs)   bands (ev):

    -3.2101  -0.6775   3.5668   4.5186   8.6930   9.2516  10.6115  14.1762

          k =-0.1667 0.5000 0.0000 (  2408 PWs)   bands (ev):

    -4.5774   2.2297   3.8417   4.5372   7.9288   9.6494  10.9275  11.7424

          k =-0.2500 0.5833-0.0833 (  2404 PWs)   bands (ev):

    -4.0487   1.1872   3.3063   4.2521   8.2580   9.8698  10.6706  12.1241

          k = 0.6667-0.3333 0.8333 (  2412 PWs)   bands (ev):

    -3.4284   0.1420   2.9496   4.0442   8.3767  10.3257  10.9224  12.1050

          k = 0.5833-0.2500 0.7500 (  2407 PWs)   bands (ev):

    -2.9369  -0.5572   2.7047   4.0265   8.5023  10.0538  11.9975  12.3812

          k = 0.5000-0.1667 0.6667 (  2410 PWs)   bands (ev):

    -3.0712  -0.3720   2.5882   4.1973   8.7484   9.8678  11.9153  12.7622

          k = 0.4167-0.0833 0.5833 (  2409 PWs)   bands (ev):

    -3.6557   0.4966   2.6641   4.5108   9.1025   9.7299  11.4007  11.8699

          k = 0.3333 0.0000 0.5000 (  2403 PWs)   bands (ev):

    -4.2536   1.4686   3.0782   4.8885   9.3405   9.4751  10.7883  11.4445

          k =-0.1667 0.6667-0.0000 (  2409 PWs)   bands (ev):

    -3.7725   0.9681   3.3365   3.7617   7.5326   8.6118  12.1608  13.3025

          k = 0.7500-0.2500 0.9167 (  2402 PWs)   bands (ev):

    -3.1715   0.1383   2.7525   3.5467   7.8641   9.1375  11.8630  13.6676

          k = 0.6667-0.1667 0.8333 (  2403 PWs)   bands (ev):

    -2.5877  -0.5700   2.2350   3.5545   8.0163  10.4218  11.5712  13.6012

          k = 0.5833-0.0833 0.7500 (  2393 PWs)   bands (ev):

    -2.5181  -0.6396   1.9489   3.7511   8.2705  11.1686  12.1553  12.8324

          k = 0.5000 0.0000 0.6667 (  2404 PWs)   bands (ev):

    -3.0508  -0.0537   2.0354   4.0930   8.6584  10.7605  11.6093  12.9321

          k = 0.8333-0.1667 1.0000 (  2403 PWs)   bands (ev):

    -2.7713  -0.3367   3.0555   3.2514   7.3624   7.8717  13.5278  14.8984

          k = 0.7500-0.0833 0.9167 (  2398 PWs)   bands (ev):

    -2.1475  -0.9756   2.4324   3.2075   7.6523   8.7715  13.2115  14.6869

          k = 0.6667 0.0000 0.8333 (  2393 PWs)   bands (ev):

    -1.9959  -1.0869   1.9386   3.4029   7.8878  10.2901  12.7577  13.1434

          k =-0.1667-1.0000-0.0000 (  2406 PWs)   bands (ev):

    -1.6082  -1.6082   3.0210   3.0210   7.4637   7.4637  14.9902  14.9902

          k = 0.6667-0.3333 1.0000 (  2409 PWs)   bands (ev):

    -3.4887   0.5150   2.6116   3.8769   8.9828   9.8410  10.3438  13.1571

          k = 0.5833-0.2500 0.9167 (  2409 PWs)   bands (ev):

    -2.8699  -0.2492   2.2662   3.5433   9.3545   9.8868  10.8659  13.5800

          k = 0.5000-0.1667 0.8333 (  2396 PWs)   bands (ev):

    -2.5132  -0.6738   2.1730   3.4152   9.4865   9.6729  12.2028  12.6192

          k = 0.6667-0.1667 1.0000 (  2421 PWs)   bands (ev):

    -2.5599  -0.4803   2.4154   3.0307   8.8128   9.2140  11.4881  14.3995

          k = 0.5833-0.0833 0.9167 (  2406 PWs)   bands (ev):

    -2.0416  -0.9833   2.1031   2.8775   9.1517  10.4070  11.2158  12.5942

          k = 0.5000 0.0000 0.8333 (  2406 PWs)   bands (ev):

    -2.2716  -0.7545   1.9792   3.1004   9.4514  10.5926  11.1074  12.3448

          k =-0.3333-1.0000 0.0000 (  2402 PWs)   bands (ev):

    -1.5283  -1.5283   2.5392   2.5392   8.8789   8.8789  12.8589  12.8589

          k =-0.5000-1.0000 0.0000 (  2400 PWs)   bands (ev):

    -1.4853  -1.4853   2.3334   2.3334  10.3922  10.3922  11.1079  11.1079

     the Fermi energy is     6.5894 ev

!    total energy              =     -15.76637910 Ry
     estimated scf accuracy    <          1.9E-12 Ry
     smearing contrib. (-TS)   =      -0.00000000 Ry
     internal energy E=F+TS    =     -15.76637910 Ry

     The total energy is F=E-TS. E is the sum of the following terms:
     one-electron contribution =       4.69062760 Ry
     hartree contribution      =       1.10752315 Ry
     xc contribution           =      -4.80786961 Ry
     ewald contribution        =     -16.75666023 Ry

     convergence has been achieved in   7 iterations

     Writing all to output data dir out/mp-149.save/
 
     init_run     :      0.16s CPU      0.18s WALL (       1 calls)
     electrons    :      5.75s CPU      6.31s WALL (       1 calls)

     Called by init_run:
     wfcinit      :      0.13s CPU      0.14s WALL (       1 calls)
     potinit      :      0.01s CPU      0.01s WALL (       1 calls)
     hinit0       :      0.01s CPU      0.01s WALL (       1 calls)

     Called by electrons:
     c_bands      :      5.34s CPU      5.88s WALL (       7 calls)
     sum_band     :      0.38s CPU      0.39s WALL (       7 calls)
     v_of_rho     :      0.03s CPU      0.03s WALL (       8 calls)
     mix_rho      :      0.00s CPU      0.00s WALL (       7 calls)

     Called by c_bands:
     init_us_2    :      0.05s CPU      0.06s WALL (    1080 calls)
     init_us_2:cp :      0.05s CPU      0.05s WALL (    1080 calls)
     paro_k       :      5.22s CPU      5.73s WALL (     504 calls)

     Called by paro_*:
     h_psi        :      4.16s CPU      4.54s WALL (    8143 calls)
     g_psi        :      0.08s CPU      0.09s WALL (   29274 calls)

     Called by h_psi:
     h_psi:calbec :      0.16s CPU      0.18s WALL (    8143 calls)
     vloc_psi     :      3.85s CPU      4.19s WALL (    8143 calls)
     add_vuspsi   :      0.10s CPU      0.10s WALL (    8143 calls)

     General routines
     calbec       :      0.14s CPU      0.16s WALL (    8143 calls)
     fft          :      0.01s CPU      0.02s WALL (      79 calls)
     ffts         :      0.00s CPU      0.00s WALL (       7 calls)
     fftw         :      3.70s CPU      4.02s WALL (   55672 calls)
 
     Parallel routines
 
     PWSCF        :      5.98s CPU      6.65s WALL

 
   This run was terminated on:  14:26:47   3Jan2024            

=------------------------------------------------------------------------------=
   JOB DONE.
=------------------------------------------------------------------------------=
