<?xml version="1.0" encoding="ISO-8859-1"?>
<modeling>
 <generator>
  <i name="program" type="string">vasp </i>
  <i name="version" type="string">5.4.4.18Apr17-6-g9f103f2a35  </i>
  <i name="subversion" type="string">(build Aug 24 2017 11:22:49) complex            parallel </i>
  <i name="platform" type="string">LinuxIFC </i>
  <i name="date" type="string">2023 12 25 </i>
  <i name="time" type="string">13:07:09 </i>
 </generator>
 <incar>
  <i type="string" name="PREC">accurate</i>
  <i type="string" name="ALGO"> Normal</i>
  <i type="int" name="NELM">   100</i>
  <i type="int" name="IBRION">     8</i>
  <i name="EDIFF">      0.00000001</i>
  <i name="SYMPREC">      0.00000001</i>
  <i name="ENCUT">    520.00000000</i>
  <i type="logical" name="LREAL"> F  </i>
  <i type="int" name="ISMEAR">     0</i>
  <i name="SIGMA">      0.01000000</i>
  <i type="logical" name="LWAVE"> F  </i>
  <v type="int" name="KPOINT_BSE">    -1     0     0     0</v>
  <i type="int" name="NELM">   100</i>
  <i type="logical" name="LPEAD"> T  </i>
  <i type="logical" name="LEPSILON"> T  </i>
 </incar>
 <structure name="primitive_cell" >
  <crystal>
   <varray name="basis" >
    <v>      -2.65441320       0.00000000       2.65441320 </v>
    <v>       0.00000000       2.65441320       2.65441320 </v>
    <v>      -2.65441320       2.65441320       0.00000000 </v>
   </varray>
   <i name="volume">     37.40551007 </i>
   <varray name="rec_basis" >
    <v>      -0.18836555      -0.18836555       0.18836555 </v>
    <v>       0.18836555       0.18836555       0.18836555 </v>
    <v>      -0.18836555       0.18836555      -0.18836555 </v>
   </varray>
  </crystal>
  <varray name="positions" >
   <v>       0.00000000       0.00000000       0.00000000 </v>
   <v>       0.49999996      -0.49999996       0.49999996 </v>
  </varray>
 </structure>
 <varray name="primitive_index" >
  <v type="int" >        1 </v>
  <v type="int" >        2 </v>
 </varray>
 <kpoints>
  <generation param="Gamma">
   <v type="int" name="divisions">      12       12       12 </v>
   <v name="usershift">      0.00000000       0.00000000       0.00000000 </v>
   <v name="genvec1">      0.08333333      -0.00000000      -0.00000000 </v>
   <v name="genvec2">     -0.00000000       0.08333333       0.00000000 </v>
   <v name="genvec3">      0.00000000       0.00000000       0.08333333 </v>
   <v name="shift">      0.00000000       0.00000000       0.00000000 </v>
  </generation>
  <varray name="kpointlist" >
   <v>       0.00000000       0.00000000       0.00000000 </v>
   <v>       0.08333333       0.00000000       0.00000000 </v>
   <v>       0.16666667       0.00000000       0.00000000 </v>
   <v>       0.25000000      -0.00000000      -0.00000000 </v>
   <v>       0.33333333       0.00000000       0.00000000 </v>
   <v>       0.41666667       0.00000000       0.00000000 </v>
   <v>       0.50000000      -0.00000000      -0.00000000 </v>
   <v>       0.08333333       0.08333333      -0.00000000 </v>
   <v>       0.16666667       0.08333333       0.00000000 </v>
   <v>       0.25000000       0.08333333      -0.00000000 </v>
   <v>       0.33333333       0.08333333       0.00000000 </v>
   <v>       0.41666667       0.08333333       0.00000000 </v>
   <v>       0.50000000       0.08333333       0.00000000 </v>
   <v>      -0.41666667       0.08333333       0.00000000 </v>
   <v>      -0.33333333       0.08333333      -0.00000000 </v>
   <v>      -0.25000000       0.08333333      -0.00000000 </v>
   <v>      -0.16666667       0.08333333      -0.00000000 </v>
   <v>      -0.08333333       0.08333333      -0.00000000 </v>
   <v>       0.16666667       0.16666667      -0.00000000 </v>
   <v>       0.25000000       0.16666667       0.00000000 </v>
   <v>       0.33333333       0.16666667       0.00000000 </v>
   <v>       0.41666667       0.16666667       0.00000000 </v>
   <v>       0.50000000       0.16666667       0.00000000 </v>
   <v>      -0.41666667       0.16666667       0.00000000 </v>
   <v>      -0.33333333       0.16666667       0.00000000 </v>
   <v>      -0.25000000       0.16666667       0.00000000 </v>
   <v>      -0.16666667       0.16666667      -0.00000000 </v>
   <v>       0.25000000       0.25000000      -0.00000000 </v>
   <v>       0.33333333       0.25000000      -0.00000000 </v>
   <v>       0.41666667       0.25000000       0.00000000 </v>
   <v>       0.50000000       0.25000000      -0.00000000 </v>
   <v>      -0.41666667       0.25000000      -0.00000000 </v>
   <v>      -0.33333333       0.25000000       0.00000000 </v>
   <v>      -0.25000000       0.25000000       0.00000000 </v>
   <v>       0.33333333       0.33333333      -0.00000000 </v>
   <v>       0.41666667       0.33333333      -0.00000000 </v>
   <v>       0.50000000       0.33333333       0.00000000 </v>
   <v>      -0.41666667       0.33333333       0.00000000 </v>
   <v>      -0.33333333       0.33333333      -0.00000000 </v>
   <v>       0.41666667       0.41666667      -0.00000000 </v>
   <v>       0.50000000       0.41666667      -0.00000000 </v>
   <v>      -0.41666667       0.41666667      -0.00000000 </v>
   <v>       0.50000000       0.50000000      -0.00000000 </v>
   <v>       0.08333333      -0.00000000       0.08333333 </v>
   <v>       0.16666667       0.00000000       0.08333333 </v>
   <v>       0.25000000       0.00000000       0.08333333 </v>
   <v>       0.33333333      -0.00000000       0.08333333 </v>
   <v>       0.41666667       0.00000000       0.08333333 </v>
   <v>       0.50000000       0.00000000       0.08333333 </v>
   <v>      -0.41666667       0.00000000       0.08333333 </v>
   <v>      -0.33333333      -0.00000000       0.08333333 </v>
   <v>      -0.25000000      -0.00000000       0.08333333 </v>
   <v>      -0.16666667       0.00000000       0.08333333 </v>
   <v>      -0.08333333      -0.00000000       0.08333333 </v>
   <v>       0.25000000       0.16666667       0.08333333 </v>
   <v>       0.33333333       0.16666667       0.08333333 </v>
   <v>       0.41666667       0.16666667       0.08333333 </v>
   <v>       0.50000000       0.16666667       0.08333333 </v>
   <v>      -0.41666667       0.16666667       0.08333333 </v>
   <v>       0.16666667       0.25000000       0.08333333 </v>
   <v>       0.33333333       0.25000000       0.08333333 </v>
   <v>       0.41666667       0.25000000       0.08333333 </v>
   <v>       0.50000000       0.25000000       0.08333333 </v>
   <v>      -0.41666667       0.25000000       0.08333333 </v>
   <v>      -0.33333333       0.25000000       0.08333333 </v>
   <v>      -0.25000000       0.25000000       0.08333333 </v>
   <v>      -0.16666667       0.25000000       0.08333333 </v>
   <v>       0.16666667       0.33333333       0.08333333 </v>
   <v>       0.25000000       0.33333333       0.08333333 </v>
   <v>       0.41666667       0.33333333       0.08333333 </v>
   <v>       0.50000000       0.33333333       0.08333333 </v>
   <v>      -0.41666667       0.33333333       0.08333333 </v>
   <v>      -0.33333333       0.33333333       0.08333333 </v>
   <v>      -0.25000000       0.33333333       0.08333333 </v>
   <v>       0.16666667       0.41666667       0.08333333 </v>
   <v>       0.25000000       0.41666667       0.08333333 </v>
   <v>       0.33333333       0.41666667       0.08333333 </v>
   <v>       0.50000000       0.41666667       0.08333333 </v>
   <v>      -0.41666667       0.41666667       0.08333333 </v>
   <v>      -0.33333333       0.41666667       0.08333333 </v>
   <v>       0.16666667       0.50000000       0.08333333 </v>
   <v>       0.25000000       0.50000000       0.08333333 </v>
   <v>       0.33333333       0.50000000       0.08333333 </v>
   <v>       0.41666667       0.50000000       0.08333333 </v>
   <v>      -0.41666667       0.50000000       0.08333333 </v>
   <v>       0.16666667      -0.41666667       0.08333333 </v>
   <v>       0.25000000      -0.41666667       0.08333333 </v>
   <v>       0.33333333      -0.41666667       0.08333333 </v>
   <v>       0.41666667      -0.41666667       0.08333333 </v>
   <v>       0.50000000      -0.41666667       0.08333333 </v>
   <v>       0.16666667      -0.33333333       0.08333333 </v>
   <v>       0.25000000      -0.33333333       0.08333333 </v>
   <v>       0.33333333      -0.33333333       0.08333333 </v>
   <v>       0.41666667      -0.33333333       0.08333333 </v>
   <v>       0.16666667      -0.25000000       0.08333333 </v>
   <v>       0.25000000      -0.25000000       0.08333333 </v>
   <v>       0.33333333      -0.25000000       0.08333333 </v>
   <v>       0.16666667      -0.16666667       0.08333333 </v>
   <v>       0.25000000      -0.16666667       0.08333333 </v>
   <v>       0.16666667      -0.08333333       0.08333333 </v>
   <v>       0.16666667       0.00000000       0.16666667 </v>
   <v>       0.25000000      -0.00000000       0.16666667 </v>
   <v>       0.33333333       0.00000000       0.16666667 </v>
   <v>       0.41666667      -0.00000000       0.16666667 </v>
   <v>       0.50000000      -0.00000000       0.16666667 </v>
   <v>      -0.41666667      -0.00000000       0.16666667 </v>
   <v>      -0.33333333       0.00000000       0.16666667 </v>
   <v>      -0.25000000      -0.00000000       0.16666667 </v>
   <v>      -0.16666667      -0.00000000       0.16666667 </v>
   <v>       0.50000000       0.33333333       0.16666667 </v>
   <v>      -0.41666667       0.33333333       0.16666667 </v>
   <v>      -0.33333333       0.33333333       0.16666667 </v>
   <v>       0.25000000       0.41666667       0.16666667 </v>
   <v>      -0.41666667       0.41666667       0.16666667 </v>
   <v>      -0.33333333       0.41666667       0.16666667 </v>
   <v>      -0.25000000       0.41666667       0.16666667 </v>
   <v>       0.25000000       0.50000000       0.16666667 </v>
   <v>       0.33333333       0.50000000       0.16666667 </v>
   <v>      -0.33333333       0.50000000       0.16666667 </v>
   <v>       0.25000000      -0.41666667       0.16666667 </v>
   <v>       0.33333333      -0.41666667       0.16666667 </v>
   <v>       0.41666667      -0.41666667       0.16666667 </v>
   <v>       0.25000000      -0.33333333       0.16666667 </v>
   <v>       0.33333333      -0.33333333       0.16666667 </v>
   <v>       0.41666667      -0.33333333       0.16666667 </v>
   <v>       0.50000000      -0.33333333       0.16666667 </v>
   <v>       0.25000000      -0.25000000       0.16666667 </v>
   <v>       0.33333333      -0.25000000       0.16666667 </v>
   <v>       0.41666667      -0.25000000       0.16666667 </v>
   <v>       0.25000000      -0.16666667       0.16666667 </v>
   <v>       0.33333333      -0.16666667       0.16666667 </v>
   <v>       0.25000000      -0.08333333       0.16666667 </v>
   <v>       0.25000000      -0.00000000       0.25000000 </v>
   <v>       0.33333333      -0.00000000       0.25000000 </v>
   <v>       0.41666667       0.00000000       0.25000000 </v>
   <v>       0.50000000      -0.00000000       0.25000000 </v>
   <v>      -0.41666667       0.00000000       0.25000000 </v>
   <v>      -0.33333333      -0.00000000       0.25000000 </v>
   <v>      -0.25000000       0.00000000       0.25000000 </v>
   <v>      -0.25000000       0.50000000       0.25000000 </v>
   <v>       0.33333333      -0.41666667       0.25000000 </v>
   <v>       0.33333333      -0.33333333       0.25000000 </v>
   <v>       0.41666667      -0.33333333       0.25000000 </v>
   <v>       0.33333333      -0.25000000       0.25000000 </v>
   <v>       0.41666667      -0.25000000       0.25000000 </v>
   <v>       0.50000000      -0.25000000       0.25000000 </v>
   <v>       0.33333333      -0.16666667       0.25000000 </v>
   <v>       0.41666667      -0.16666667       0.25000000 </v>
   <v>       0.33333333      -0.08333333       0.25000000 </v>
   <v>       0.33333333      -0.00000000       0.33333333 </v>
   <v>       0.41666667       0.00000000       0.33333333 </v>
   <v>       0.50000000      -0.00000000       0.33333333 </v>
   <v>      -0.41666667       0.00000000       0.33333333 </v>
   <v>      -0.33333333      -0.00000000       0.33333333 </v>
   <v>       0.41666667      -0.25000000       0.33333333 </v>
   <v>       0.41666667      -0.16666667       0.33333333 </v>
   <v>       0.50000000      -0.16666667       0.33333333 </v>
   <v>       0.41666667      -0.08333333       0.33333333 </v>
   <v>       0.41666667      -0.00000000       0.41666667 </v>
   <v>       0.50000000      -0.00000000       0.41666667 </v>
   <v>      -0.41666667      -0.00000000       0.41666667 </v>
   <v>       0.50000000      -0.08333333       0.41666667 </v>
   <v>       0.50000000      -0.00000000       0.50000000 </v>
  </varray>
  <varray name="weights" >
   <v>       0.00057870 </v>
   <v>       0.00462963 </v>
   <v>       0.00462963 </v>
   <v>       0.00462963 </v>
   <v>       0.00462963 </v>
   <v>       0.00462963 </v>
   <v>       0.00231481 </v>
   <v>       0.00231481 </v>
   <v>       0.00925926 </v>
   <v>       0.00925926 </v>
   <v>       0.00925926 </v>
   <v>       0.00925926 </v>
   <v>       0.00925926 </v>
   <v>       0.00925926 </v>
   <v>       0.00925926 </v>
   <v>       0.00925926 </v>
   <v>       0.00925926 </v>
   <v>       0.00462963 </v>
   <v>       0.00231481 </v>
   <v>       0.00925926 </v>
   <v>       0.00925926 </v>
   <v>       0.00925926 </v>
   <v>       0.00925926 </v>
   <v>       0.00925926 </v>
   <v>       0.00925926 </v>
   <v>       0.00925926 </v>
   <v>       0.00462963 </v>
   <v>       0.00231481 </v>
   <v>       0.00925926 </v>
   <v>       0.00925926 </v>
   <v>       0.00925926 </v>
   <v>       0.00925926 </v>
   <v>       0.00925926 </v>
   <v>       0.00462963 </v>
   <v>       0.00231481 </v>
   <v>       0.00925926 </v>
   <v>       0.00925926 </v>
   <v>       0.00925926 </v>
   <v>       0.00462963 </v>
   <v>       0.00231481 </v>
   <v>       0.00925926 </v>
   <v>       0.00462963 </v>
   <v>       0.00115741 </v>
   <v>       0.00115741 </v>
   <v>       0.00462963 </v>
   <v>       0.00462963 </v>
   <v>       0.00462963 </v>
   <v>       0.00462963 </v>
   <v>       0.00462963 </v>
   <v>       0.00462963 </v>
   <v>       0.00462963 </v>
   <v>       0.00462963 </v>
   <v>       0.00462963 </v>
   <v>       0.00231481 </v>
   <v>       0.00462963 </v>
   <v>       0.00925926 </v>
   <v>       0.00925926 </v>
   <v>       0.00925926 </v>
   <v>       0.00462963 </v>
   <v>       0.00462963 </v>
   <v>       0.00462963 </v>
   <v>       0.00925926 </v>
   <v>       0.00925926 </v>
   <v>       0.00925926 </v>
   <v>       0.00925926 </v>
   <v>       0.00925926 </v>
   <v>       0.00462963 </v>
   <v>       0.00925926 </v>
   <v>       0.00462963 </v>
   <v>       0.00462963 </v>
   <v>       0.00925926 </v>
   <v>       0.00925926 </v>
   <v>       0.00925926 </v>
   <v>       0.00462963 </v>
   <v>       0.00925926 </v>
   <v>       0.00925926 </v>
   <v>       0.00462963 </v>
   <v>       0.00462963 </v>
   <v>       0.00925926 </v>
   <v>       0.00462963 </v>
   <v>       0.00925926 </v>
   <v>       0.00925926 </v>
   <v>       0.00925926 </v>
   <v>       0.00462963 </v>
   <v>       0.00231481 </v>
   <v>       0.00925926 </v>
   <v>       0.00925926 </v>
   <v>       0.00925926 </v>
   <v>       0.00925926 </v>
   <v>       0.00231481 </v>
   <v>       0.00925926 </v>
   <v>       0.00925926 </v>
   <v>       0.00925926 </v>
   <v>       0.00462963 </v>
   <v>       0.00925926 </v>
   <v>       0.00925926 </v>
   <v>       0.00462963 </v>
   <v>       0.00925926 </v>
   <v>       0.00462963 </v>
   <v>       0.00462963 </v>
   <v>       0.00115741 </v>
   <v>       0.00462963 </v>
   <v>       0.00462963 </v>
   <v>       0.00462963 </v>
   <v>       0.00462963 </v>
   <v>       0.00462963 </v>
   <v>       0.00462963 </v>
   <v>       0.00462963 </v>
   <v>       0.00231481 </v>
   <v>       0.00462963 </v>
   <v>       0.00925926 </v>
   <v>       0.00462963 </v>
   <v>       0.00462963 </v>
   <v>       0.00462963 </v>
   <v>       0.00925926 </v>
   <v>       0.00462963 </v>
   <v>       0.00925926 </v>
   <v>       0.00462963 </v>
   <v>       0.00231481 </v>
   <v>       0.00925926 </v>
   <v>       0.00925926 </v>
   <v>       0.00462963 </v>
   <v>       0.00925926 </v>
   <v>       0.00925926 </v>
   <v>       0.00925926 </v>
   <v>       0.00231481 </v>
   <v>       0.00925926 </v>
   <v>       0.00925926 </v>
   <v>       0.00462963 </v>
   <v>       0.00925926 </v>
   <v>       0.00462963 </v>
   <v>       0.00462963 </v>
   <v>       0.00115741 </v>
   <v>       0.00462963 </v>
   <v>       0.00462963 </v>
   <v>       0.00462963 </v>
   <v>       0.00462963 </v>
   <v>       0.00462963 </v>
   <v>       0.00231481 </v>
   <v>       0.00115741 </v>
   <v>       0.00462963 </v>
   <v>       0.00925926 </v>
   <v>       0.00462963 </v>
   <v>       0.00925926 </v>
   <v>       0.00925926 </v>
   <v>       0.00231481 </v>
   <v>       0.00925926 </v>
   <v>       0.00462963 </v>
   <v>       0.00462963 </v>
   <v>       0.00115741 </v>
   <v>       0.00462963 </v>
   <v>       0.00462963 </v>
   <v>       0.00462963 </v>
   <v>       0.00231481 </v>
   <v>       0.00462963 </v>
   <v>       0.00925926 </v>
   <v>       0.00231481 </v>
   <v>       0.00462963 </v>
   <v>       0.00115741 </v>
   <v>       0.00462963 </v>
   <v>       0.00231481 </v>
   <v>       0.00231481 </v>
   <v>       0.00057870 </v>
  </varray>
 </kpoints>
 <parameters>
  <separator name="general" >
   <i type="string" name="SYSTEM">unknown system</i>
   <i type="logical" name="LCOMPAT"> F  </i>
  </separator>
  <separator name="electronic" >
   <i type="string" name="PREC">accura</i>
   <i name="ENMAX">    520.00000000</i>
   <i name="ENAUG">    613.61400000</i>
   <i name="EDIFF">      0.00000001</i>
   <i type="int" name="IALGO">    38</i>
   <i type="int" name="IWAVPR">    11</i>
   <i type="int" name="NBANDS">    16</i>
   <i name="NELECT">     16.00000000</i>
   <i type="int" name="TURBO">     0</i>
   <i type="int" name="IRESTART">     0</i>
   <i type="int" name="NREBOOT">     0</i>
   <i type="int" name="NMIN">     0</i>
   <i name="EREF">      0.00000000</i>
   <separator name="electronic smearing" >
    <i type="int" name="ISMEAR">     0</i>
    <i name="SIGMA">      0.01000000</i>
    <i name="KSPACING">      0.50000000</i>
    <i type="logical" name="KGAMMA"> T  </i>
   </separator>
   <separator name="electronic projectors" >
    <i type="logical" name="LREAL"> F  </i>
    <v name="ROPT">      0.00000000      0.00000000</v>
    <i type="int" name="LMAXPAW">  -100</i>
    <i type="int" name="LMAXMIX">     2</i>
    <i type="logical" name="NLSPLINE"> F  </i>
   </separator>
   <separator name="electronic startup" >
    <i type="int" name="ISTART">     0</i>
    <i type="int" name="ICHARG">     2</i>
    <i type="int" name="INIWAV">     1</i>
   </separator>
   <separator name="electronic spin" >
    <i type="int" name="ISPIN">     1</i>
    <i type="logical" name="LNONCOLLINEAR"> F  </i>
    <v name="MAGMOM">      1.00000000      1.00000000</v>
    <i name="NUPDOWN">     -1.00000000</i>
    <i type="logical" name="LSORBIT"> F  </i>
    <v name="SAXIS">      0.00000000      0.00000000      1.00000000</v>
    <i type="logical" name="LSPIRAL"> F  </i>
    <v name="QSPIRAL">      0.00000000      0.00000000      0.00000000</v>
    <i type="logical" name="LZEROZ"> F  </i>
   </separator>
   <separator name="electronic exchange-correlation" >
    <i type="logical" name="LASPH"> F  </i>
    <i type="logical" name="LMETAGGA"> F  </i>
   </separator>
   <separator name="electronic convergence" >
    <i type="int" name="NELM">   100</i>
    <i type="int" name="NELMDL">    -5</i>
    <i type="int" name="NELMIN">     2</i>
    <i name="ENINI">    520.00000000</i>
    <separator name="electronic convergence detail" >
     <i type="logical" name="LDIAG"> T  </i>
     <i type="logical" name="LSUBROT"> F  </i>
     <i name="WEIMIN">      0.00100000</i>
     <i name="EBREAK">      0.00000000</i>
     <i name="DEPER">      0.30000000</i>
     <i type="int" name="NRMM">     4</i>
     <i name="TIME">      0.40000000</i>
    </separator>
   </separator>
   <separator name="electronic mixer" >
    <i name="AMIX">      0.40000000</i>
    <i name="BMIX">      1.00000000</i>
    <i name="AMIN">      0.10000000</i>
    <i name="AMIX_MAG">      1.60000000</i>
    <i name="BMIX_MAG">      1.00000000</i>
    <separator name="electronic mixer details" >
     <i type="int" name="IMIX">     4</i>
     <i type="logical" name="MIXFIRST"> F  </i>
     <i type="int" name="MAXMIX">   -45</i>
     <i name="WC">    100.00000000</i>
     <i type="int" name="INIMIX">     1</i>
     <i type="int" name="MIXPRE">     1</i>
     <i type="int" name="MREMOVE">     5</i>
    </separator>
   </separator>
   <separator name="electronic dipolcorrection" >
    <i type="logical" name="LDIPOL"> F  </i>
    <i type="logical" name="LMONO"> F  </i>
    <i type="int" name="IDIPOL">     0</i>
    <i name="EPSILON">      1.00000000</i>
    <v name="DIPOL">   -100.00000000   -100.00000000   -100.00000000</v>
    <i name="EFIELD">      0.00000000</i>
   </separator>
  </separator>
  <separator name="grids" >
   <i type="int" name="NGX">    28</i>
   <i type="int" name="NGY">    28</i>
   <i type="int" name="NGZ">    28</i>
   <i type="int" name="NGXF">    56</i>
   <i type="int" name="NGYF">    56</i>
   <i type="int" name="NGZF">    56</i>
   <i type="logical" name="ADDGRID"> F  </i>
  </separator>
  <separator name="ionic" >
   <i type="int" name="NSW">     1</i>
   <i type="int" name="IBRION">     8</i>
   <i type="int" name="MDALGO">     0</i>
   <i type="int" name="ISIF">     2</i>
   <i name="PSTRESS">      0.00000000</i>
   <i name="EDIFFG">      0.00000010</i>
   <i type="int" name="NFREE">     0</i>
   <i name="POTIM">      0.50000000</i>
   <i name="SMASS">     -3.00000000</i>
   <i name="SCALEE">      1.00000000</i>
  </separator>
  <separator name="ionic md" >
   <i name="TEBEG">      0.00010000</i>
   <i name="TEEND">      0.00010000</i>
   <i type="int" name="NBLOCK">     1</i>
   <i type="int" name="KBLOCK">     1</i>
   <i type="int" name="NPACO">   256</i>
   <i name="APACO">     16.00000000</i>
  </separator>
  <separator name="symmetry" >
   <i type="int" name="ISYM">     2</i>
   <i name="SYMPREC">      0.00000001</i>
  </separator>
  <separator name="dos" >
   <i type="int" name="LORBIT">     0</i>
   <v name="RWIGS">     -1.00000000     -1.00000000</v>
   <i type="int" name="NEDOS">   301</i>
   <i name="EMIN">     10.00000000</i>
   <i name="EMAX">    -10.00000000</i>
   <i name="EFERMI">      0.00000000</i>
  </separator>
  <separator name="writing" >
   <i type="int" name="NWRITE">     2</i>
   <i type="logical" name="LWAVE"> F  </i>
   <i type="logical" name="LDOWNSAMPLE"> F  </i>
   <i type="logical" name="LCHARG"> T  </i>
   <i type="logical" name="LPARD"> F  </i>
   <i type="logical" name="LVTOT"> F  </i>
   <i type="logical" name="LVHAR"> F  </i>
   <i type="logical" name="LELF"> F  </i>
   <i type="logical" name="LOPTICS"> F  </i>
   <v name="STM">      0.00000000      0.00000000      0.00000000      0.00000000      0.00000000      0.00000000      0.00000000</v>
  </separator>
  <separator name="performance" >
   <i type="int" name="NPAR">     8</i>
   <i type="int" name="NSIM">     4</i>
   <i type="int" name="NBLK">    -1</i>
   <i type="logical" name="LPLANE"> T  </i>
   <i type="logical" name="LSCALAPACK"> T  </i>
   <i type="logical" name="LSCAAWARE"> F  </i>
   <i type="logical" name="LSCALU"> F  </i>
   <i type="logical" name="LASYNC"> F  </i>
   <i type="logical" name="LORBITALREAL"> F  </i>
  </separator>
  <separator name="miscellaneous" >
   <i type="int" name="IDIOT">     3</i>
   <i type="int" name="ISPECIAL">     0</i>
   <i type="logical" name="LMUSIC"> F  </i>
   <v name="POMASS">     39.09800000     18.99800000</v>
   <v name="DARWINR">      0.00000000      0.00000000</v>
   <v name="DARWINV">      1.00000000      1.00000000</v>
   <i type="logical" name="LCORR"> T  </i>
  </separator>
  <i type="logical" name="GGA_COMPAT"> T  </i>
  <i type="logical" name="LBERRY"> F  </i>
  <i type="int" name="ICORELEVEL">     0</i>
  <i type="logical" name="LDAU"> F  </i>
  <i type="int" name="I_CONSTRAINED_M">     0</i>
  <separator name="electronic exchange-correlation" >
   <i type="string" name="GGA">--</i>
   <i type="int" name="VOSKOWN">     0</i>
   <i type="logical" name="LHFCALC"> F  </i>
   <i type="string" name="PRECFOCK"></i>
   <i type="logical" name="LSYMGRAD"> F  </i>
   <i type="logical" name="LHFONE"> F  </i>
   <i type="logical" name="LRHFCALC"> F  </i>
   <i type="logical" name="LTHOMAS"> F  </i>
   <i type="logical" name="LMODELHF"> F  </i>
   <i name="ENCUT4O">     -1.00000000</i>
   <i type="int" name="EXXOEP">     0</i>
   <i type="int" name="FOURORBIT">     0</i>
   <i name="AEXX">      0.00000000</i>
   <i name="HFALPHA">      0.00000000</i>
   <i name="MCALPHA">      0.00000000</i>
   <i name="ALDAX">      1.00000000</i>
   <i name="AGGAX">      1.00000000</i>
   <i name="ALDAC">      1.00000000</i>
   <i name="AGGAC">      1.00000000</i>
   <i type="int" name="NKREDX">     1</i>
   <i type="int" name="NKREDY">     1</i>
   <i type="int" name="NKREDZ">     1</i>
   <i type="logical" name="SHIFTRED"> F  </i>
   <i type="logical" name="ODDONLY"> F  </i>
   <i type="logical" name="EVENONLY"> F  </i>
   <i type="int" name="LMAXFOCK">     0</i>
   <i type="int" name="NMAXFOCKAE">     0</i>
   <i type="logical" name="LFOCKAEDFT"> F  </i>
   <i name="HFSCREEN">      0.00000000</i>
   <i name="HFSCREENC">      0.00000000</i>
   <i type="int" name="NBANDSGWLOW">     0</i>
  </separator>
  <separator name="vdW DFT" >
   <i type="logical" name="LUSE_VDW"> F  </i>
   <i name="Zab_VDW">     -0.84910000</i>
   <i name="PARAM1">      0.12340000</i>
   <i name="PARAM2">      1.00000000</i>
   <i name="PARAM3">      0.00000000</i>
  </separator>
  <separator name="model GW" >
   <i type="int" name="MODEL_GW">     0</i>
   <i name="MODEL_EPS0">     11.22165302</i>
   <i name="MODEL_ALPHA">      1.00000000</i>
  </separator>
  <separator name="linear response parameters" >
   <i type="logical" name="LEPSILON"> T  </i>
   <i type="logical" name="LRPA"> F  </i>
   <i type="logical" name="LNABLA"> F  </i>
   <i type="logical" name="LVEL"> F  </i>
   <i type="int" name="KINTER">     0</i>
   <i name="CSHIFT">      0.10000000</i>
   <i name="OMEGAMAX">     -1.00000000</i>
   <i name="DEG_THRESHOLD">      0.00200000</i>
   <i name="RTIME">     -0.10000000</i>
   <i name="WPLASMAI">      0.00000000</i>
   <v name="DFIELD">      0.00000000      0.00000000      0.00000000</v>
   <v name="WPLASMA">      0.00000000      0.00000000      0.00000000      0.00000000      0.00000000      0.00000000      0.00000000      0.00000000      0.00000000</v>
  </separator>
  <separator name="orbital magnetization" >
   <i type="logical" name="NUCIND"> F  </i>
   <v name="MAGPOS">      0.00000000      0.00000000      0.00000000</v>
   <i type="logical" name="LNICSALL"> T  </i>
   <i type="logical" name="ORBITALMAG"> F  </i>
   <i type="logical" name="LMAGBLOCH"> F  </i>
   <i type="logical" name="LCHIMAG"> F  </i>
   <i type="logical" name="LGAUGE"> T  </i>
   <i type="int" name="MAGATOM">     0</i>
   <v name="MAGDIPOL">      0.00000000      0.00000000      0.00000000</v>
   <v name="AVECCONST">      0.00000000      0.00000000      0.00000000</v>
  </separator>
  <separator name="response functions" >
   <i type="logical" name="LADDER"> F  </i>
   <i type="logical" name="LRPAFORCE"> F  </i>
   <i type="logical" name="LFXC"> F  </i>
   <i type="logical" name="LHARTREE"> T  </i>
   <i type="int" name="IBSE">     0</i>
   <v type="int" name="KPOINT">    -1     0     0     0</v>
   <i type="logical" name="LTCTE"> F  </i>
   <i type="logical" name="LTETE"> F  </i>
   <i type="logical" name="LTRIPLET"> F  </i>
   <i type="logical" name="LFXCEPS"> F  </i>
   <i type="logical" name="LFXHEG"> F  </i>
   <i type="int" name="NATURALO">     2</i>
   <i type="logical" name="L2ORDER"> F  </i>
   <i type="logical" name="LMP2LT"> F  </i>
   <i type="logical" name="LUSEW"> F  </i>
   <i name="ENCUTGW">     -2.00000000</i>
   <i name="ENCUTGWSOFT">     -2.00000000</i>
   <i name="ENCUTLF">     -1.00000000</i>
   <i type="int" name="LMAXMP2">    -1</i>
   <i name="SCISSOR">      0.00000000</i>
   <i type="int" name="NOMEGA">     0</i>
   <i type="int" name="NOMEGAR">     0</i>
   <i type="int" name="NBANDSGW">    -1</i>
   <i type="int" name="NBANDSO">    -1</i>
   <i type="int" name="NBANDSV">    -1</i>
   <i type="int" name="NELM">   100</i>
   <i type="int" name="NELMHF">     1</i>
   <i type="int" name="DIM">     3</i>
   <i type="int" name="ANTIRES">     0</i>
   <i name="OMEGAMAX">    -30.00000000</i>
   <i name="OMEGAMIN">    -30.00000000</i>
   <i name="OMEGATL">   -200.00000000</i>
   <i type="int" name="OMEGAGRID">   140</i>
   <i name="CSHIFT">     -0.10000000</i>
   <i type="logical" name="SELFENERGY"> F  </i>
   <i type="logical" name="LSPECTRAL"> F  </i>
   <i type="logical" name="LSPECTRALGW"> F  </i>
   <i type="logical" name="LSINGLES"> F  </i>
   <i type="logical" name="LFERMIGW"> F  </i>
   <i type="logical" name="ODDONLYGW"> F  </i>
   <i type="logical" name="EVENONLYGW"> F  </i>
   <i type="int" name="NKREDLFX">     1</i>
   <i type="int" name="NKREDLFY">     1</i>
   <i type="int" name="NKREDLFZ">     1</i>
   <i type="int" name="MAXMEM">  2800</i>
   <i type="int" name="TELESCOPE">     0</i>
   <i type="int" name="TAUPAR">     1</i>
   <i type="int" name="OMEGAPAR">    -1</i>
   <i name="LAMBDA">      1.00000000</i>
  </separator>
  <separator name="External order field" >
   <i name="OFIELD_KAPPA">      0.00000000</i>
   <v name="OFIELD_K">      0.00000000      0.00000000      0.00000000</v>
   <i name="OFIELD_Q6_NEAR">      0.00000000</i>
   <i name="OFIELD_Q6_FAR">      0.00000000</i>
   <i name="OFIELD_A">      0.00000000</i>
  </separator>
 </parameters>
 <atominfo>
  <atoms>       2 </atoms>
  <types>       2 </types>
  <array name="atoms" >
   <dimension dim="1">ion</dimension>
   <field type="string">element</field>
   <field type="int">atomtype</field>
   <set>
    <rc><c>K </c><c>   1</c></rc>
    <rc><c>F </c><c>   2</c></rc>
   </set>
  </array>
  <array name="atomtypes" >
   <dimension dim="1">type</dimension>
   <field type="int">atomspertype</field>
   <field type="string">element</field>
   <field>mass</field>
   <field>valence</field>
   <field type="string">pseudopotential</field>
   <set>
    <rc><c>   1</c><c>K </c><c>     39.09800000</c><c>      9.00000000</c><c>  PAW_PBE K_sv 06Sep2000                </c></rc>
    <rc><c>   1</c><c>F </c><c>     18.99800000</c><c>      7.00000000</c><c>  PAW_PBE F 08Apr2002                   </c></rc>
   </set>
  </array>
 </atominfo>
 <structure name="initialpos" >
  <crystal>
   <varray name="basis" >
    <v>      -2.65441320       0.00000000       2.65441320 </v>
    <v>       0.00000000       2.65441320       2.65441320 </v>
    <v>      -2.65441320       2.65441320       0.00000000 </v>
   </varray>
   <i name="volume">     37.40551007 </i>
   <varray name="rec_basis" >
    <v>      -0.18836555      -0.18836555       0.18836555 </v>
    <v>       0.18836555       0.18836555       0.18836555 </v>
    <v>      -0.18836555       0.18836555      -0.18836555 </v>
   </varray>
  </crystal>
  <varray name="positions" >
   <v>       0.00000000       0.00000000       0.00000000 </v>
   <v>       0.49999996       0.50000004       0.49999996 </v>
  </varray>
 </structure>
 <calculation>
  <scstep>
   <time name="dav">    4.01    7.42</time>
   <time name="total">    4.04    7.51</time>
   <energy>
    <i name="alphaZ">     69.70825493 </i>
    <i name="ewald">   -994.56229644 </i>
    <i name="hartreedc">   -378.37943177 </i>
    <i name="XCdc">     72.61742409 </i>
    <i name="pawpsdc">   1133.23228718 </i>
    <i name="pawaedc">  -1133.28899287 </i>
    <i name="eentropy">     -0.00000199 </i>
    <i name="bandstr">    -95.64540362 </i>
    <i name="atom">   1434.62047331 </i>
    <i name="e_fr_energy">    108.30231283 </i>
    <i name="e_wo_entrp">    108.30231482 </i>
    <i name="e_0_energy">    108.30231383 </i>
   </energy>
  </scstep>
  <scstep>
   <time name="dav">    4.51    8.14</time>
   <time name="total">    4.52    8.15</time>
   <energy>
    <i name="e_fr_energy">     -5.29680412 </i>
    <i name="e_wo_entrp">     -5.29680412 </i>
    <i name="e_0_energy">     -5.29680412 </i>
   </energy>
  </scstep>
  <scstep>
   <time name="dav">    4.37    7.95</time>
   <time name="total">    4.37    7.95</time>
   <energy>
    <i name="e_fr_energy">     -9.43953826 </i>
    <i name="e_wo_entrp">     -9.43953826 </i>
    <i name="e_0_energy">     -9.43953826 </i>
   </energy>
  </scstep>
  <scstep>
   <time name="dav">    4.57    8.27</time>
   <time name="total">    4.57    8.28</time>
   <energy>
    <i name="e_fr_energy">     -9.53751222 </i>
    <i name="e_wo_entrp">     -9.53751222 </i>
    <i name="e_0_energy">     -9.53751222 </i>
   </energy>
  </scstep>
  <scstep>
   <time name="dav">    4.39    7.98</time>
   <time name="total">    4.45    8.08</time>
   <energy>
    <i name="e_fr_energy">     -9.53918694 </i>
    <i name="e_wo_entrp">     -9.53918694 </i>
    <i name="e_0_energy">     -9.53918694 </i>
   </energy>
  </scstep>
  <scstep>
   <time name="dav">    4.32    7.81</time>
   <time name="total">    4.39    7.95</time>
   <energy>
    <i name="e_fr_energy">     -8.30959876 </i>
    <i name="e_wo_entrp">     -8.30959876 </i>
    <i name="e_0_energy">     -8.30959876 </i>
   </energy>
  </scstep>
  <scstep>
   <time name="dav">    4.05    7.44</time>
   <time name="total">    4.13    7.59</time>
   <energy>
    <i name="e_fr_energy">     -8.28237939 </i>
    <i name="e_wo_entrp">     -8.28237939 </i>
    <i name="e_0_energy">     -8.28237939 </i>
   </energy>
  </scstep>
  <scstep>
   <time name="dav">    4.38    7.90</time>
   <time name="total">    4.49    8.12</time>
   <energy>
    <i name="e_fr_energy">     -8.27833037 </i>
    <i name="e_wo_entrp">     -8.27833037 </i>
    <i name="e_0_energy">     -8.27833037 </i>
   </energy>
  </scstep>
  <scstep>
   <time name="dav">    4.19    7.50</time>
   <time name="total">    4.30    7.73</time>
   <energy>
    <i name="e_fr_energy">     -8.28016928 </i>
    <i name="e_wo_entrp">     -8.28016928 </i>
    <i name="e_0_energy">     -8.28016928 </i>
   </energy>
  </scstep>
  <scstep>
   <time name="dav">    4.22    7.65</time>
   <time name="total">    4.31    7.84</time>
   <energy>
    <i name="e_fr_energy">     -8.28082930 </i>
    <i name="e_wo_entrp">     -8.28082930 </i>
    <i name="e_0_energy">     -8.28082930 </i>
   </energy>
  </scstep>
  <scstep>
   <time name="dav">    3.89    7.08</time>
   <time name="total">    3.98    7.23</time>
   <energy>
    <i name="e_fr_energy">     -8.28091620 </i>
    <i name="e_wo_entrp">     -8.28091620 </i>
    <i name="e_0_energy">     -8.28091620 </i>
   </energy>
  </scstep>
  <scstep>
   <time name="dav">    4.29    7.83</time>
   <time name="total">    4.37    7.97</time>
   <energy>
    <i name="e_fr_energy">     -8.28091379 </i>
    <i name="e_wo_entrp">     -8.28091379 </i>
    <i name="e_0_energy">     -8.28091379 </i>
   </energy>
  </scstep>
  <scstep>
   <time name="dav">    4.05    7.25</time>
   <time name="total">    4.12    7.39</time>
   <energy>
    <i name="e_fr_energy">     -8.28091415 </i>
    <i name="e_wo_entrp">     -8.28091415 </i>
    <i name="e_0_energy">     -8.28091415 </i>
   </energy>
  </scstep>
  <scstep>
   <time name="dav">    4.37    7.73</time>
   <time name="total">    4.45    7.87</time>
   <energy>
    <i name="e_fr_energy">     -8.28091413 </i>
    <i name="e_wo_entrp">     -8.28091413 </i>
    <i name="e_0_energy">     -8.28091413 </i>
   </energy>
  </scstep>
  <scstep>
   <time name="dav">    3.84    7.03</time>
   <time name="total">    3.86    7.07</time>
   <energy>
    <i name="alphaZ">     69.70825493 </i>
    <i name="ewald">   -994.56229644 </i>
    <i name="hartreedc">   -398.07321072 </i>
    <i name="XCdc">     73.77701750 </i>
    <i name="pawpsdc">   1215.67428288 </i>
    <i name="pawaedc">  -1217.14051966 </i>
    <i name="eentropy">     -0.00000000 </i>
    <i name="bandstr">   -192.28491591 </i>
    <i name="atom">   1434.62047331 </i>
    <i name="e_fr_energy">     -8.28091412 </i>
    <i name="e_wo_entrp">     -8.28091412 </i>
    <i name="e_0_energy">     -8.28091412 </i>
   </energy>
  </scstep>
  <structure>
   <crystal>
    <varray name="basis" >
     <v>      -2.65441320       0.00000000       2.65441320 </v>
     <v>       0.00000000       2.65441320       2.65441320 </v>
     <v>      -2.65441320       2.65441320       0.00000000 </v>
    </varray>
    <i name="volume">     37.40551007 </i>
    <varray name="rec_basis" >
     <v>      -0.18836555      -0.18836555       0.18836555 </v>
     <v>       0.18836555       0.18836555       0.18836555 </v>
     <v>      -0.18836555       0.18836555      -0.18836555 </v>
    </varray>
   </crystal>
   <varray name="positions" >
    <v>       0.00000000       0.00000000       0.00000000 </v>
    <v>       0.49999996       0.50000004       0.49999996 </v>
   </varray>
  </structure>
  <varray name="forces" >
   <v>       0.00000037       0.00000000      -0.00000000 </v>
   <v>      -0.00000037      -0.00000000       0.00000000 </v>
  </varray>
  <varray name="stress" >
   <v>      21.70156527       0.00000000       0.00000000 </v>
   <v>       0.00000000      21.70158012       0.00000000 </v>
   <v>       0.00000000       0.00000000      21.70158012 </v>
  </varray>
  <energy>
   <i name="e_fr_energy">     -8.28091412 </i>
   <i name="e_wo_entrp">     -8.28091412 </i>
   <i name="e_0_energy">     -0.00000000 </i>
  </energy>
  <scstep>
   <time name="total">    0.93    1.60</time>
   <energy>
    <i name="e_fr_energy">     -0.11202027 </i>
    <i name="e_wo_entrp">     -0.11202027 </i>
    <i name="e_0_energy">     -0.11202027 </i>
   </energy>
  </scstep>
  <scstep>
   <time name="total">    0.99    1.70</time>
   <energy>
    <i name="e_fr_energy">     -0.11398628 </i>
    <i name="e_wo_entrp">     -0.11398628 </i>
    <i name="e_0_energy">     -0.11398628 </i>
   </energy>
  </scstep>
  <scstep>
   <time name="total">    0.94    1.58</time>
   <energy>
    <i name="e_fr_energy">     -0.11519584 </i>
    <i name="e_wo_entrp">     -0.11519584 </i>
    <i name="e_0_energy">     -0.11519584 </i>
   </energy>
  </scstep>
  <scstep>
   <time name="total">    0.91    1.51</time>
   <energy>
    <i name="e_fr_energy">     -0.11538250 </i>
    <i name="e_wo_entrp">     -0.11538250 </i>
    <i name="e_0_energy">     -0.11538250 </i>
   </energy>
  </scstep>
  <scstep>
   <time name="total">    0.89    1.49</time>
   <energy>
    <i name="e_fr_energy">     -0.11540440 </i>
    <i name="e_wo_entrp">     -0.11540440 </i>
    <i name="e_0_energy">     -0.11540440 </i>
   </energy>
  </scstep>
  <scstep>
   <time name="total">    0.92    1.55</time>
   <energy>
    <i name="e_fr_energy">     -0.11540741 </i>
    <i name="e_wo_entrp">     -0.11540741 </i>
    <i name="e_0_energy">     -0.11540741 </i>
   </energy>
  </scstep>
  <scstep>
   <time name="total">    0.93    1.55</time>
   <energy>
    <i name="e_fr_energy">     -0.11540784 </i>
    <i name="e_wo_entrp">     -0.11540784 </i>
    <i name="e_0_energy">     -0.11540784 </i>
   </energy>
  </scstep>
  <scstep>
   <time name="total">    0.90    1.53</time>
   <energy>
    <i name="e_fr_energy">     -0.11540790 </i>
    <i name="e_wo_entrp">     -0.11540790 </i>
    <i name="e_0_energy">     -0.11540790 </i>
   </energy>
  </scstep>
  <scstep>
   <time name="total">    0.85    1.42</time>
   <energy>
    <i name="e_fr_energy">     -0.11540791 </i>
    <i name="e_wo_entrp">     -0.11540791 </i>
    <i name="e_0_energy">     -0.11540791 </i>
   </energy>
  </scstep>
  <scstep>
   <time name="total">    0.95    1.61</time>
   <energy>
    <i name="e_fr_energy">     -0.11317837 </i>
    <i name="e_wo_entrp">     -0.11317837 </i>
    <i name="e_0_energy">     -0.11317837 </i>
   </energy>
  </scstep>
  <scstep>
   <time name="total">    0.95    1.63</time>
   <energy>
    <i name="e_fr_energy">     -0.11542202 </i>
    <i name="e_wo_entrp">     -0.11542202 </i>
    <i name="e_0_energy">     -0.11542202 </i>
   </energy>
  </scstep>
  <scstep>
   <time name="total">    0.97    1.57</time>
   <energy>
    <i name="e_fr_energy">     -0.11664913 </i>
    <i name="e_wo_entrp">     -0.11664913 </i>
    <i name="e_0_energy">     -0.11664913 </i>
   </energy>
  </scstep>
  <scstep>
   <time name="total">    0.96    1.59</time>
   <energy>
    <i name="e_fr_energy">     -0.11684236 </i>
    <i name="e_wo_entrp">     -0.11684236 </i>
    <i name="e_0_energy">     -0.11684236 </i>
   </energy>
  </scstep>
  <scstep>
   <time name="total">    0.99    1.66</time>
   <energy>
    <i name="e_fr_energy">     -0.11686457 </i>
    <i name="e_wo_entrp">     -0.11686457 </i>
    <i name="e_0_energy">     -0.11686457 </i>
   </energy>
  </scstep>
  <scstep>
   <time name="total">    0.97    1.66</time>
   <energy>
    <i name="e_fr_energy">     -0.11686765 </i>
    <i name="e_wo_entrp">     -0.11686765 </i>
    <i name="e_0_energy">     -0.11686765 </i>
   </energy>
  </scstep>
  <scstep>
   <time name="total">    0.98    1.66</time>
   <energy>
    <i name="e_fr_energy">     -0.11686809 </i>
    <i name="e_wo_entrp">     -0.11686809 </i>
    <i name="e_0_energy">     -0.11686809 </i>
   </energy>
  </scstep>
  <scstep>
   <time name="total">    0.94    1.56</time>
   <energy>
    <i name="e_fr_energy">     -0.11686816 </i>
    <i name="e_wo_entrp">     -0.11686816 </i>
    <i name="e_0_energy">     -0.11686816 </i>
   </energy>
  </scstep>
  <scstep>
   <time name="total">    0.94    1.62</time>
   <energy>
    <i name="e_fr_energy">     -0.11686817 </i>
    <i name="e_wo_entrp">     -0.11686817 </i>
    <i name="e_0_energy">     -0.11686817 </i>
   </energy>
  </scstep>
  <scstep>
   <time name="total">    0.91    1.55</time>
   <energy>
    <i name="e_fr_energy">     -0.11086180 </i>
    <i name="e_wo_entrp">     -0.11086180 </i>
    <i name="e_0_energy">     -0.11086180 </i>
   </energy>
  </scstep>
  <scstep>
   <time name="total">    0.95    1.61</time>
   <energy>
    <i name="e_fr_energy">     -0.11255016 </i>
    <i name="e_wo_entrp">     -0.11255016 </i>
    <i name="e_0_energy">     -0.11255016 </i>
   </energy>
  </scstep>
  <scstep>
   <time name="total">    0.96    1.64</time>
   <energy>
    <i name="e_fr_energy">     -0.11374343 </i>
    <i name="e_wo_entrp">     -0.11374343 </i>
    <i name="e_0_energy">     -0.11374343 </i>
   </energy>
  </scstep>
  <scstep>
   <time name="total">    0.97    1.67</time>
   <energy>
    <i name="e_fr_energy">     -0.11392329 </i>
    <i name="e_wo_entrp">     -0.11392329 </i>
    <i name="e_0_energy">     -0.11392329 </i>
   </energy>
  </scstep>
  <scstep>
   <time name="total">    0.92    1.56</time>
   <energy>
    <i name="e_fr_energy">     -0.11394478 </i>
    <i name="e_wo_entrp">     -0.11394478 </i>
    <i name="e_0_energy">     -0.11394478 </i>
   </energy>
  </scstep>
  <scstep>
   <time name="total">    0.91    1.54</time>
   <energy>
    <i name="e_fr_energy">     -0.11394770 </i>
    <i name="e_wo_entrp">     -0.11394770 </i>
    <i name="e_0_energy">     -0.11394770 </i>
   </energy>
  </scstep>
  <scstep>
   <time name="total">    0.93    1.57</time>
   <energy>
    <i name="e_fr_energy">     -0.11394812 </i>
    <i name="e_wo_entrp">     -0.11394812 </i>
    <i name="e_0_energy">     -0.11394812 </i>
   </energy>
  </scstep>
  <scstep>
   <time name="total">    0.94    1.62</time>
   <energy>
    <i name="e_fr_energy">     -0.11394818 </i>
    <i name="e_wo_entrp">     -0.11394818 </i>
    <i name="e_0_energy">     -0.11394818 </i>
   </energy>
  </scstep>
  <scstep>
   <time name="total">    0.93    1.56</time>
   <energy>
    <i name="e_fr_energy">     -0.11394819 </i>
    <i name="e_wo_entrp">     -0.11394819 </i>
    <i name="e_0_energy">     -0.11394819 </i>
   </energy>
  </scstep>
  <varray name="epsilon_rpa" >
   <v>       2.11659354       0.00000000      -0.00000000 </v>
   <v>       0.00000000       2.11659606       0.00000000 </v>
   <v>      -0.00000000       0.00000000       2.11659606 </v>
  </varray>
  <kpoints>
   <generation param="Gamma">
    <v type="int" name="divisions">      12       12       12 </v>
    <v name="usershift">      0.00000000       0.00000000       0.00000000 </v>
    <v name="genvec1">      0.08333333      -0.00000000      -0.00000000 </v>
    <v name="genvec2">     -0.00000000       0.08333333       0.00000000 </v>
    <v name="genvec3">      0.00000000       0.00000000       0.08333333 </v>
    <v name="shift">      0.00000000       0.00000000       0.00000000 </v>
   </generation>
   <varray name="kpointlist" >
    <v>       0.00000000       0.00000000       0.00000000 </v>
    <v>       0.08333333       0.00000000       0.00000000 </v>
    <v>       0.16666667       0.00000000       0.00000000 </v>
    <v>       0.25000000      -0.00000000      -0.00000000 </v>
    <v>       0.33333333       0.00000000       0.00000000 </v>
    <v>       0.41666667       0.00000000       0.00000000 </v>
    <v>       0.50000000      -0.00000000      -0.00000000 </v>
    <v>       0.08333333       0.08333333      -0.00000000 </v>
    <v>       0.16666667       0.08333333       0.00000000 </v>
    <v>       0.25000000       0.08333333      -0.00000000 </v>
    <v>       0.33333333       0.08333333       0.00000000 </v>
    <v>       0.41666667       0.08333333       0.00000000 </v>
    <v>       0.50000000       0.08333333       0.00000000 </v>
    <v>      -0.41666667       0.08333333       0.00000000 </v>
    <v>      -0.33333333       0.08333333      -0.00000000 </v>
    <v>      -0.25000000       0.08333333      -0.00000000 </v>
    <v>      -0.16666667       0.08333333      -0.00000000 </v>
    <v>      -0.08333333       0.08333333      -0.00000000 </v>
    <v>       0.16666667       0.16666667      -0.00000000 </v>
    <v>       0.25000000       0.16666667       0.00000000 </v>
    <v>       0.33333333       0.16666667       0.00000000 </v>
    <v>       0.41666667       0.16666667       0.00000000 </v>
    <v>       0.50000000       0.16666667       0.00000000 </v>
    <v>      -0.41666667       0.16666667       0.00000000 </v>
    <v>      -0.33333333       0.16666667       0.00000000 </v>
    <v>      -0.25000000       0.16666667       0.00000000 </v>
    <v>      -0.16666667       0.16666667      -0.00000000 </v>
    <v>       0.25000000       0.25000000      -0.00000000 </v>
    <v>       0.33333333       0.25000000      -0.00000000 </v>
    <v>       0.41666667       0.25000000       0.00000000 </v>
    <v>       0.50000000       0.25000000      -0.00000000 </v>
    <v>      -0.41666667       0.25000000      -0.00000000 </v>
    <v>      -0.33333333       0.25000000       0.00000000 </v>
    <v>      -0.25000000       0.25000000       0.00000000 </v>
    <v>       0.33333333       0.33333333      -0.00000000 </v>
    <v>       0.41666667       0.33333333      -0.00000000 </v>
    <v>       0.50000000       0.33333333       0.00000000 </v>
    <v>      -0.41666667       0.33333333       0.00000000 </v>
    <v>      -0.33333333       0.33333333      -0.00000000 </v>
    <v>       0.41666667       0.41666667      -0.00000000 </v>
    <v>       0.50000000       0.41666667      -0.00000000 </v>
    <v>      -0.41666667       0.41666667      -0.00000000 </v>
    <v>       0.50000000       0.50000000      -0.00000000 </v>
    <v>       0.08333333      -0.00000000       0.08333333 </v>
    <v>       0.16666667       0.00000000       0.08333333 </v>
    <v>       0.25000000       0.00000000       0.08333333 </v>
    <v>       0.33333333      -0.00000000       0.08333333 </v>
    <v>       0.41666667       0.00000000       0.08333333 </v>
    <v>       0.50000000       0.00000000       0.08333333 </v>
    <v>      -0.41666667       0.00000000       0.08333333 </v>
    <v>      -0.33333333      -0.00000000       0.08333333 </v>
    <v>      -0.25000000      -0.00000000       0.08333333 </v>
    <v>      -0.16666667       0.00000000       0.08333333 </v>
    <v>      -0.08333333      -0.00000000       0.08333333 </v>
    <v>       0.25000000       0.16666667       0.08333333 </v>
    <v>       0.33333333       0.16666667       0.08333333 </v>
    <v>       0.41666667       0.16666667       0.08333333 </v>
    <v>       0.50000000       0.16666667       0.08333333 </v>
    <v>      -0.41666667       0.16666667       0.08333333 </v>
    <v>       0.16666667       0.25000000       0.08333333 </v>
    <v>       0.33333333       0.25000000       0.08333333 </v>
    <v>       0.41666667       0.25000000       0.08333333 </v>
    <v>       0.50000000       0.25000000       0.08333333 </v>
    <v>      -0.41666667       0.25000000       0.08333333 </v>
    <v>      -0.33333333       0.25000000       0.08333333 </v>
    <v>      -0.25000000       0.25000000       0.08333333 </v>
    <v>      -0.16666667       0.25000000       0.08333333 </v>
    <v>       0.16666667       0.33333333       0.08333333 </v>
    <v>       0.25000000       0.33333333       0.08333333 </v>
    <v>       0.41666667       0.33333333       0.08333333 </v>
    <v>       0.50000000       0.33333333       0.08333333 </v>
    <v>      -0.41666667       0.33333333       0.08333333 </v>
    <v>      -0.33333333       0.33333333       0.08333333 </v>
    <v>      -0.25000000       0.33333333       0.08333333 </v>
    <v>       0.16666667       0.41666667       0.08333333 </v>
    <v>       0.25000000       0.41666667       0.08333333 </v>
    <v>       0.33333333       0.41666667       0.08333333 </v>
    <v>       0.50000000       0.41666667       0.08333333 </v>
    <v>      -0.41666667       0.41666667       0.08333333 </v>
    <v>      -0.33333333       0.41666667       0.08333333 </v>
    <v>       0.16666667       0.50000000       0.08333333 </v>
    <v>       0.25000000       0.50000000       0.08333333 </v>
    <v>       0.33333333       0.50000000       0.08333333 </v>
    <v>       0.41666667       0.50000000       0.08333333 </v>
    <v>      -0.41666667       0.50000000       0.08333333 </v>
    <v>       0.16666667      -0.41666667       0.08333333 </v>
    <v>       0.25000000      -0.41666667       0.08333333 </v>
    <v>       0.33333333      -0.41666667       0.08333333 </v>
    <v>       0.41666667      -0.41666667       0.08333333 </v>
    <v>       0.50000000      -0.41666667       0.08333333 </v>
    <v>       0.16666667      -0.33333333       0.08333333 </v>
    <v>       0.25000000      -0.33333333       0.08333333 </v>
    <v>       0.33333333      -0.33333333       0.08333333 </v>
    <v>       0.41666667      -0.33333333       0.08333333 </v>
    <v>       0.16666667      -0.25000000       0.08333333 </v>
    <v>       0.25000000      -0.25000000       0.08333333 </v>
    <v>       0.33333333      -0.25000000       0.08333333 </v>
    <v>       0.16666667      -0.16666667       0.08333333 </v>
    <v>       0.25000000      -0.16666667       0.08333333 </v>
    <v>       0.16666667      -0.08333333       0.08333333 </v>
    <v>       0.16666667       0.00000000       0.16666667 </v>
    <v>       0.25000000      -0.00000000       0.16666667 </v>
    <v>       0.33333333       0.00000000       0.16666667 </v>
    <v>       0.41666667      -0.00000000       0.16666667 </v>
    <v>       0.50000000      -0.00000000       0.16666667 </v>
    <v>      -0.41666667      -0.00000000       0.16666667 </v>
    <v>      -0.33333333       0.00000000       0.16666667 </v>
    <v>      -0.25000000      -0.00000000       0.16666667 </v>
    <v>      -0.16666667      -0.00000000       0.16666667 </v>
    <v>       0.50000000       0.33333333       0.16666667 </v>
    <v>      -0.41666667       0.33333333       0.16666667 </v>
    <v>      -0.33333333       0.33333333       0.16666667 </v>
    <v>       0.25000000       0.41666667       0.16666667 </v>
    <v>      -0.41666667       0.41666667       0.16666667 </v>
    <v>      -0.33333333       0.41666667       0.16666667 </v>
    <v>      -0.25000000       0.41666667       0.16666667 </v>
    <v>       0.25000000       0.50000000       0.16666667 </v>
    <v>       0.33333333       0.50000000       0.16666667 </v>
    <v>      -0.33333333       0.50000000       0.16666667 </v>
    <v>       0.25000000      -0.41666667       0.16666667 </v>
    <v>       0.33333333      -0.41666667       0.16666667 </v>
    <v>       0.41666667      -0.41666667       0.16666667 </v>
    <v>       0.25000000      -0.33333333       0.16666667 </v>
    <v>       0.33333333      -0.33333333       0.16666667 </v>
    <v>       0.41666667      -0.33333333       0.16666667 </v>
    <v>       0.50000000      -0.33333333       0.16666667 </v>
    <v>       0.25000000      -0.25000000       0.16666667 </v>
    <v>       0.33333333      -0.25000000       0.16666667 </v>
    <v>       0.41666667      -0.25000000       0.16666667 </v>
    <v>       0.25000000      -0.16666667       0.16666667 </v>
    <v>       0.33333333      -0.16666667       0.16666667 </v>
    <v>       0.25000000      -0.08333333       0.16666667 </v>
    <v>       0.25000000      -0.00000000       0.25000000 </v>
    <v>       0.33333333      -0.00000000       0.25000000 </v>
    <v>       0.41666667       0.00000000       0.25000000 </v>
    <v>       0.50000000      -0.00000000       0.25000000 </v>
    <v>      -0.41666667       0.00000000       0.25000000 </v>
    <v>      -0.33333333      -0.00000000       0.25000000 </v>
    <v>      -0.25000000       0.00000000       0.25000000 </v>
    <v>      -0.25000000       0.50000000       0.25000000 </v>
    <v>       0.33333333      -0.41666667       0.25000000 </v>
    <v>       0.33333333      -0.33333333       0.25000000 </v>
    <v>       0.41666667      -0.33333333       0.25000000 </v>
    <v>       0.33333333      -0.25000000       0.25000000 </v>
    <v>       0.41666667      -0.25000000       0.25000000 </v>
    <v>       0.50000000      -0.25000000       0.25000000 </v>
    <v>       0.33333333      -0.16666667       0.25000000 </v>
    <v>       0.41666667      -0.16666667       0.25000000 </v>
    <v>       0.33333333      -0.08333333       0.25000000 </v>
    <v>       0.33333333      -0.00000000       0.33333333 </v>
    <v>       0.41666667       0.00000000       0.33333333 </v>
    <v>       0.50000000      -0.00000000       0.33333333 </v>
    <v>      -0.41666667       0.00000000       0.33333333 </v>
    <v>      -0.33333333      -0.00000000       0.33333333 </v>
    <v>       0.41666667      -0.25000000       0.33333333 </v>
    <v>       0.41666667      -0.16666667       0.33333333 </v>
    <v>       0.50000000      -0.16666667       0.33333333 </v>
    <v>       0.41666667      -0.08333333       0.33333333 </v>
    <v>       0.41666667      -0.00000000       0.41666667 </v>
    <v>       0.50000000      -0.00000000       0.41666667 </v>
    <v>      -0.41666667      -0.00000000       0.41666667 </v>
    <v>       0.50000000      -0.08333333       0.41666667 </v>
    <v>       0.50000000      -0.00000000       0.50000000 </v>
   </varray>
   <varray name="weights" >
    <v>       0.00057870 </v>
    <v>       0.00462963 </v>
    <v>       0.00462963 </v>
    <v>       0.00462963 </v>
    <v>       0.00462963 </v>
    <v>       0.00462963 </v>
    <v>       0.00231481 </v>
    <v>       0.00231481 </v>
    <v>       0.00925926 </v>
    <v>       0.00925926 </v>
    <v>       0.00925926 </v>
    <v>       0.00925926 </v>
    <v>       0.00925926 </v>
    <v>       0.00925926 </v>
    <v>       0.00925926 </v>
    <v>       0.00925926 </v>
    <v>       0.00925926 </v>
    <v>       0.00462963 </v>
    <v>       0.00231481 </v>
    <v>       0.00925926 </v>
    <v>       0.00925926 </v>
    <v>       0.00925926 </v>
    <v>       0.00925926 </v>
    <v>       0.00925926 </v>
    <v>       0.00925926 </v>
    <v>       0.00925926 </v>
    <v>       0.00462963 </v>
    <v>       0.00231481 </v>
    <v>       0.00925926 </v>
    <v>       0.00925926 </v>
    <v>       0.00925926 </v>
    <v>       0.00925926 </v>
    <v>       0.00925926 </v>
    <v>       0.00462963 </v>
    <v>       0.00231481 </v>
    <v>       0.00925926 </v>
    <v>       0.00925926 </v>
    <v>       0.00925926 </v>
    <v>       0.00462963 </v>
    <v>       0.00231481 </v>
    <v>       0.00925926 </v>
    <v>       0.00462963 </v>
    <v>       0.00115741 </v>
    <v>       0.00115741 </v>
    <v>       0.00462963 </v>
    <v>       0.00462963 </v>
    <v>       0.00462963 </v>
    <v>       0.00462963 </v>
    <v>       0.00462963 </v>
    <v>       0.00462963 </v>
    <v>       0.00462963 </v>
    <v>       0.00462963 </v>
    <v>       0.00462963 </v>
    <v>       0.00231481 </v>
    <v>       0.00462963 </v>
    <v>       0.00925926 </v>
    <v>       0.00925926 </v>
    <v>       0.00925926 </v>
    <v>       0.00462963 </v>
    <v>       0.00462963 </v>
    <v>       0.00462963 </v>
    <v>       0.00925926 </v>
    <v>       0.00925926 </v>
    <v>       0.00925926 </v>
    <v>       0.00925926 </v>
    <v>       0.00925926 </v>
    <v>       0.00462963 </v>
    <v>       0.00925926 </v>
    <v>       0.00462963 </v>
    <v>       0.00462963 </v>
    <v>       0.00925926 </v>
    <v>       0.00925926 </v>
    <v>       0.00925926 </v>
    <v>       0.00462963 </v>
    <v>       0.00925926 </v>
    <v>       0.00925926 </v>
    <v>       0.00462963 </v>
    <v>       0.00462963 </v>
    <v>       0.00925926 </v>
    <v>       0.00462963 </v>
    <v>       0.00925926 </v>
    <v>       0.00925926 </v>
    <v>       0.00925926 </v>
    <v>       0.00462963 </v>
    <v>       0.00231481 </v>
    <v>       0.00925926 </v>
    <v>       0.00925926 </v>
    <v>       0.00925926 </v>
    <v>       0.00925926 </v>
    <v>       0.00231481 </v>
    <v>       0.00925926 </v>
    <v>       0.00925926 </v>
    <v>       0.00925926 </v>
    <v>       0.00462963 </v>
    <v>       0.00925926 </v>
    <v>       0.00925926 </v>
    <v>       0.00462963 </v>
    <v>       0.00925926 </v>
    <v>       0.00462963 </v>
    <v>       0.00462963 </v>
    <v>       0.00115741 </v>
    <v>       0.00462963 </v>
    <v>       0.00462963 </v>
    <v>       0.00462963 </v>
    <v>       0.00462963 </v>
    <v>       0.00462963 </v>
    <v>       0.00462963 </v>
    <v>       0.00462963 </v>
    <v>       0.00231481 </v>
    <v>       0.00462963 </v>
    <v>       0.00925926 </v>
    <v>       0.00462963 </v>
    <v>       0.00462963 </v>
    <v>       0.00462963 </v>
    <v>       0.00925926 </v>
    <v>       0.00462963 </v>
    <v>       0.00925926 </v>
    <v>       0.00462963 </v>
    <v>       0.00231481 </v>
    <v>       0.00925926 </v>
    <v>       0.00925926 </v>
    <v>       0.00462963 </v>
    <v>       0.00925926 </v>
    <v>       0.00925926 </v>
    <v>       0.00925926 </v>
    <v>       0.00231481 </v>
    <v>       0.00925926 </v>
    <v>       0.00925926 </v>
    <v>       0.00462963 </v>
    <v>       0.00925926 </v>
    <v>       0.00462963 </v>
    <v>       0.00462963 </v>
    <v>       0.00115741 </v>
    <v>       0.00462963 </v>
    <v>       0.00462963 </v>
    <v>       0.00462963 </v>
    <v>       0.00462963 </v>
    <v>       0.00462963 </v>
    <v>       0.00231481 </v>
    <v>       0.00115741 </v>
    <v>       0.00462963 </v>
    <v>       0.00925926 </v>
    <v>       0.00462963 </v>
    <v>       0.00925926 </v>
    <v>       0.00925926 </v>
    <v>       0.00231481 </v>
    <v>       0.00925926 </v>
    <v>       0.00462963 </v>
    <v>       0.00462963 </v>
    <v>       0.00115741 </v>
    <v>       0.00462963 </v>
    <v>       0.00462963 </v>
    <v>       0.00462963 </v>
    <v>       0.00231481 </v>
    <v>       0.00462963 </v>
    <v>       0.00925926 </v>
    <v>       0.00231481 </v>
    <v>       0.00462963 </v>
    <v>       0.00115741 </v>
    <v>       0.00462963 </v>
    <v>       0.00231481 </v>
    <v>       0.00231481 </v>
    <v>       0.00057870 </v>
   </varray>
  </kpoints>
  <scstep>
   <time name="total">    0.94    1.59</time>
   <energy>
    <i name="e_fr_energy">     -0.11202027 </i>
    <i name="e_wo_entrp">     -0.11202027 </i>
    <i name="e_0_energy">     -0.11202027 </i>
   </energy>
  </scstep>
  <scstep>
   <time name="total">    1.04    1.73</time>
   <energy>
    <i name="e_fr_energy">     -0.11398628 </i>
    <i name="e_wo_entrp">     -0.11398628 </i>
    <i name="e_0_energy">     -0.11398628 </i>
   </energy>
  </scstep>
  <scstep>
   <time name="total">    1.19    1.98</time>
   <energy>
    <i name="e_fr_energy">     -0.10592834 </i>
    <i name="e_wo_entrp">     -0.10592834 </i>
    <i name="e_0_energy">     -0.10592834 </i>
   </energy>
  </scstep>
  <scstep>
   <time name="total">    1.32    2.20</time>
   <energy>
    <i name="e_fr_energy">     -0.10910464 </i>
    <i name="e_wo_entrp">     -0.10910464 </i>
    <i name="e_0_energy">     -0.10910464 </i>
   </energy>
  </scstep>
  <scstep>
   <time name="total">    1.38    2.32</time>
   <energy>
    <i name="e_fr_energy">     -0.11309218 </i>
    <i name="e_wo_entrp">     -0.11309218 </i>
    <i name="e_0_energy">     -0.11309218 </i>
   </energy>
  </scstep>
  <scstep>
   <time name="total">    1.47    2.42</time>
   <energy>
    <i name="e_fr_energy">     -0.11351223 </i>
    <i name="e_wo_entrp">     -0.11351223 </i>
    <i name="e_0_energy">     -0.11351223 </i>
   </energy>
  </scstep>
  <scstep>
   <time name="total">    1.51    2.55</time>
   <energy>
    <i name="e_fr_energy">     -0.11367865 </i>
    <i name="e_wo_entrp">     -0.11367865 </i>
    <i name="e_0_energy">     -0.11367865 </i>
   </energy>
  </scstep>
  <scstep>
   <time name="total">    1.54    2.61</time>
   <energy>
    <i name="e_fr_energy">     -0.11367291 </i>
    <i name="e_wo_entrp">     -0.11367291 </i>
    <i name="e_0_energy">     -0.11367291 </i>
   </energy>
  </scstep>
  <scstep>
   <time name="total">    1.51    2.55</time>
   <energy>
    <i name="e_fr_energy">     -0.11367733 </i>
    <i name="e_wo_entrp">     -0.11367733 </i>
    <i name="e_0_energy">     -0.11367733 </i>
   </energy>
  </scstep>
  <scstep>
   <time name="total">    1.57    2.62</time>
   <energy>
    <i name="e_fr_energy">     -0.11367875 </i>
    <i name="e_wo_entrp">     -0.11367875 </i>
    <i name="e_0_energy">     -0.11367875 </i>
   </energy>
  </scstep>
  <scstep>
   <time name="total">    1.51    2.58</time>
   <energy>
    <i name="e_fr_energy">     -0.11368016 </i>
    <i name="e_wo_entrp">     -0.11368016 </i>
    <i name="e_0_energy">     -0.11368016 </i>
   </energy>
  </scstep>
  <scstep>
   <time name="total">    1.48    2.49</time>
   <energy>
    <i name="e_fr_energy">     -0.11367999 </i>
    <i name="e_wo_entrp">     -0.11367999 </i>
    <i name="e_0_energy">     -0.11367999 </i>
   </energy>
  </scstep>
  <scstep>
   <time name="total">    1.40    2.40</time>
   <energy>
    <i name="e_fr_energy">     -0.11367996 </i>
    <i name="e_wo_entrp">     -0.11367996 </i>
    <i name="e_0_energy">     -0.11367996 </i>
   </energy>
  </scstep>
  <kpoints>
   <generation param="Gamma">
    <v type="int" name="divisions">      12       12       12 </v>
    <v name="usershift">      0.00000000       0.00000000       0.00000000 </v>
    <v name="genvec1">      0.08333333      -0.00000000      -0.00000000 </v>
    <v name="genvec2">     -0.00000000       0.08333333       0.00000000 </v>
    <v name="genvec3">      0.00000000       0.00000000       0.08333333 </v>
    <v name="shift">      0.00000000       0.00000000       0.00000000 </v>
   </generation>
   <varray name="kpointlist" >
    <v>       0.00000000       0.00000000       0.00000000 </v>
    <v>       0.08333333       0.00000000       0.00000000 </v>
    <v>       0.16666667       0.00000000       0.00000000 </v>
    <v>       0.25000000      -0.00000000      -0.00000000 </v>
    <v>       0.33333333       0.00000000       0.00000000 </v>
    <v>       0.41666667       0.00000000       0.00000000 </v>
    <v>       0.50000000      -0.00000000      -0.00000000 </v>
    <v>       0.08333333       0.08333333      -0.00000000 </v>
    <v>       0.16666667       0.08333333       0.00000000 </v>
    <v>       0.25000000       0.08333333      -0.00000000 </v>
    <v>       0.33333333       0.08333333       0.00000000 </v>
    <v>       0.41666667       0.08333333       0.00000000 </v>
    <v>       0.50000000       0.08333333       0.00000000 </v>
    <v>      -0.41666667       0.08333333       0.00000000 </v>
    <v>      -0.33333333       0.08333333      -0.00000000 </v>
    <v>      -0.25000000       0.08333333      -0.00000000 </v>
    <v>      -0.16666667       0.08333333      -0.00000000 </v>
    <v>      -0.08333333       0.08333333      -0.00000000 </v>
    <v>       0.16666667       0.16666667      -0.00000000 </v>
    <v>       0.25000000       0.16666667       0.00000000 </v>
    <v>       0.33333333       0.16666667       0.00000000 </v>
    <v>       0.41666667       0.16666667       0.00000000 </v>
    <v>       0.50000000       0.16666667       0.00000000 </v>
    <v>      -0.41666667       0.16666667       0.00000000 </v>
    <v>      -0.33333333       0.16666667       0.00000000 </v>
    <v>      -0.25000000       0.16666667       0.00000000 </v>
    <v>      -0.16666667       0.16666667      -0.00000000 </v>
    <v>       0.25000000       0.25000000      -0.00000000 </v>
    <v>       0.33333333       0.25000000      -0.00000000 </v>
    <v>       0.41666667       0.25000000       0.00000000 </v>
    <v>       0.50000000       0.25000000      -0.00000000 </v>
    <v>      -0.41666667       0.25000000      -0.00000000 </v>
    <v>      -0.33333333       0.25000000       0.00000000 </v>
    <v>      -0.25000000       0.25000000       0.00000000 </v>
    <v>       0.33333333       0.33333333      -0.00000000 </v>
    <v>       0.41666667       0.33333333      -0.00000000 </v>
    <v>       0.50000000       0.33333333       0.00000000 </v>
    <v>      -0.41666667       0.33333333       0.00000000 </v>
    <v>      -0.33333333       0.33333333      -0.00000000 </v>
    <v>       0.41666667       0.41666667      -0.00000000 </v>
    <v>       0.50000000       0.41666667      -0.00000000 </v>
    <v>      -0.41666667       0.41666667      -0.00000000 </v>
    <v>       0.50000000       0.50000000      -0.00000000 </v>
    <v>      -0.00000000      -0.00000000       0.08333333 </v>
    <v>       0.08333333      -0.00000000       0.08333333 </v>
    <v>       0.16666667       0.00000000       0.08333333 </v>
    <v>       0.25000000       0.00000000       0.08333333 </v>
    <v>       0.33333333      -0.00000000       0.08333333 </v>
    <v>       0.41666667       0.00000000       0.08333333 </v>
    <v>       0.50000000       0.00000000       0.08333333 </v>
    <v>      -0.41666667       0.00000000       0.08333333 </v>
    <v>      -0.33333333      -0.00000000       0.08333333 </v>
    <v>      -0.25000000      -0.00000000       0.08333333 </v>
    <v>      -0.16666667       0.00000000       0.08333333 </v>
    <v>      -0.08333333      -0.00000000       0.08333333 </v>
    <v>       0.00000000       0.08333333       0.08333333 </v>
    <v>       0.16666667       0.08333333       0.08333333 </v>
    <v>       0.25000000       0.08333333       0.08333333 </v>
    <v>       0.33333333       0.08333333       0.08333333 </v>
    <v>       0.41666667       0.08333333       0.08333333 </v>
    <v>       0.50000000       0.08333333       0.08333333 </v>
    <v>      -0.41666667       0.08333333       0.08333333 </v>
    <v>      -0.33333333       0.08333333       0.08333333 </v>
    <v>      -0.25000000       0.08333333       0.08333333 </v>
    <v>      -0.16666667       0.08333333       0.08333333 </v>
    <v>      -0.08333333       0.08333333       0.08333333 </v>
    <v>       0.16666667       0.16666667       0.08333333 </v>
    <v>       0.25000000       0.16666667       0.08333333 </v>
    <v>       0.33333333       0.16666667       0.08333333 </v>
    <v>       0.41666667       0.16666667       0.08333333 </v>
    <v>       0.50000000       0.16666667       0.08333333 </v>
    <v>      -0.41666667       0.16666667       0.08333333 </v>
    <v>      -0.33333333       0.16666667       0.08333333 </v>
    <v>      -0.25000000       0.16666667       0.08333333 </v>
    <v>      -0.16666667       0.16666667       0.08333333 </v>
    <v>      -0.08333333       0.16666667       0.08333333 </v>
    <v>       0.16666667       0.25000000       0.08333333 </v>
    <v>       0.25000000       0.25000000       0.08333333 </v>
    <v>       0.33333333       0.25000000       0.08333333 </v>
    <v>       0.41666667       0.25000000       0.08333333 </v>
    <v>       0.50000000       0.25000000       0.08333333 </v>
    <v>      -0.41666667       0.25000000       0.08333333 </v>
    <v>      -0.33333333       0.25000000       0.08333333 </v>
    <v>      -0.25000000       0.25000000       0.08333333 </v>
    <v>      -0.16666667       0.25000000       0.08333333 </v>
    <v>       0.16666667       0.33333333       0.08333333 </v>
    <v>       0.25000000       0.33333333       0.08333333 </v>
    <v>       0.33333333       0.33333333       0.08333333 </v>
    <v>       0.41666667       0.33333333       0.08333333 </v>
    <v>       0.50000000       0.33333333       0.08333333 </v>
    <v>      -0.41666667       0.33333333       0.08333333 </v>
    <v>      -0.33333333       0.33333333       0.08333333 </v>
    <v>      -0.25000000       0.33333333       0.08333333 </v>
    <v>       0.16666667       0.41666667       0.08333333 </v>
    <v>       0.25000000       0.41666667       0.08333333 </v>
    <v>       0.33333333       0.41666667       0.08333333 </v>
    <v>       0.41666667       0.41666667       0.08333333 </v>
    <v>       0.50000000       0.41666667       0.08333333 </v>
    <v>      -0.41666667       0.41666667       0.08333333 </v>
    <v>      -0.33333333       0.41666667       0.08333333 </v>
    <v>       0.16666667       0.50000000       0.08333333 </v>
    <v>       0.25000000       0.50000000       0.08333333 </v>
    <v>       0.33333333       0.50000000       0.08333333 </v>
    <v>       0.41666667       0.50000000       0.08333333 </v>
    <v>       0.50000000       0.50000000       0.08333333 </v>
    <v>      -0.41666667       0.50000000       0.08333333 </v>
    <v>       0.16666667      -0.41666667       0.08333333 </v>
    <v>       0.25000000      -0.41666667       0.08333333 </v>
    <v>       0.33333333      -0.41666667       0.08333333 </v>
    <v>       0.41666667      -0.41666667       0.08333333 </v>
    <v>       0.50000000      -0.41666667       0.08333333 </v>
    <v>       0.16666667      -0.33333333       0.08333333 </v>
    <v>       0.25000000      -0.33333333       0.08333333 </v>
    <v>       0.33333333      -0.33333333       0.08333333 </v>
    <v>       0.41666667      -0.33333333       0.08333333 </v>
    <v>       0.16666667      -0.25000000       0.08333333 </v>
    <v>       0.25000000      -0.25000000       0.08333333 </v>
    <v>       0.33333333      -0.25000000       0.08333333 </v>
    <v>       0.16666667      -0.16666667       0.08333333 </v>
    <v>       0.25000000      -0.16666667       0.08333333 </v>
    <v>       0.16666667      -0.08333333       0.08333333 </v>
    <v>      -0.00000000      -0.00000000       0.16666667 </v>
    <v>       0.08333333      -0.00000000       0.16666667 </v>
    <v>       0.16666667       0.00000000       0.16666667 </v>
    <v>       0.25000000      -0.00000000       0.16666667 </v>
    <v>       0.33333333       0.00000000       0.16666667 </v>
    <v>       0.41666667      -0.00000000       0.16666667 </v>
    <v>       0.50000000      -0.00000000       0.16666667 </v>
    <v>      -0.41666667      -0.00000000       0.16666667 </v>
    <v>      -0.33333333       0.00000000       0.16666667 </v>
    <v>      -0.25000000      -0.00000000       0.16666667 </v>
    <v>      -0.16666667      -0.00000000       0.16666667 </v>
    <v>      -0.08333333       0.00000000       0.16666667 </v>
    <v>       0.00000000       0.08333333       0.16666667 </v>
    <v>       0.08333333       0.08333333       0.16666667 </v>
    <v>       0.25000000       0.08333333       0.16666667 </v>
    <v>       0.33333333       0.08333333       0.16666667 </v>
    <v>       0.41666667       0.08333333       0.16666667 </v>
    <v>       0.50000000       0.08333333       0.16666667 </v>
    <v>      -0.41666667       0.08333333       0.16666667 </v>
    <v>      -0.33333333       0.08333333       0.16666667 </v>
    <v>      -0.25000000       0.08333333       0.16666667 </v>
    <v>      -0.16666667       0.08333333       0.16666667 </v>
    <v>      -0.08333333       0.08333333       0.16666667 </v>
    <v>       0.00000000       0.16666667       0.16666667 </v>
    <v>       0.25000000       0.16666667       0.16666667 </v>
    <v>       0.33333333       0.16666667       0.16666667 </v>
    <v>       0.41666667       0.16666667       0.16666667 </v>
    <v>       0.50000000       0.16666667       0.16666667 </v>
    <v>      -0.41666667       0.16666667       0.16666667 </v>
    <v>      -0.33333333       0.16666667       0.16666667 </v>
    <v>      -0.25000000       0.16666667       0.16666667 </v>
    <v>      -0.16666667       0.16666667       0.16666667 </v>
    <v>      -0.08333333       0.16666667       0.16666667 </v>
    <v>       0.25000000       0.25000000       0.16666667 </v>
    <v>       0.33333333       0.25000000       0.16666667 </v>
    <v>       0.41666667       0.25000000       0.16666667 </v>
    <v>       0.50000000       0.25000000       0.16666667 </v>
    <v>      -0.41666667       0.25000000       0.16666667 </v>
    <v>      -0.33333333       0.25000000       0.16666667 </v>
    <v>      -0.25000000       0.25000000       0.16666667 </v>
    <v>      -0.16666667       0.25000000       0.16666667 </v>
    <v>      -0.08333333       0.25000000       0.16666667 </v>
    <v>       0.25000000       0.33333333       0.16666667 </v>
    <v>       0.33333333       0.33333333       0.16666667 </v>
    <v>       0.41666667       0.33333333       0.16666667 </v>
    <v>       0.50000000       0.33333333       0.16666667 </v>
    <v>      -0.41666667       0.33333333       0.16666667 </v>
    <v>      -0.33333333       0.33333333       0.16666667 </v>
    <v>      -0.25000000       0.33333333       0.16666667 </v>
    <v>      -0.16666667       0.33333333       0.16666667 </v>
    <v>       0.25000000       0.41666667       0.16666667 </v>
    <v>       0.33333333       0.41666667       0.16666667 </v>
    <v>       0.41666667       0.41666667       0.16666667 </v>
    <v>       0.50000000       0.41666667       0.16666667 </v>
    <v>      -0.41666667       0.41666667       0.16666667 </v>
    <v>      -0.33333333       0.41666667       0.16666667 </v>
    <v>      -0.25000000       0.41666667       0.16666667 </v>
    <v>       0.25000000       0.50000000       0.16666667 </v>
    <v>       0.33333333       0.50000000       0.16666667 </v>
    <v>       0.41666667       0.50000000       0.16666667 </v>
    <v>       0.50000000       0.50000000       0.16666667 </v>
    <v>      -0.41666667       0.50000000       0.16666667 </v>
    <v>      -0.33333333       0.50000000       0.16666667 </v>
    <v>       0.25000000      -0.41666667       0.16666667 </v>
    <v>       0.33333333      -0.41666667       0.16666667 </v>
    <v>       0.41666667      -0.41666667       0.16666667 </v>
    <v>       0.50000000      -0.41666667       0.16666667 </v>
    <v>      -0.41666667      -0.41666667       0.16666667 </v>
    <v>       0.25000000      -0.33333333       0.16666667 </v>
    <v>       0.33333333      -0.33333333       0.16666667 </v>
    <v>       0.41666667      -0.33333333       0.16666667 </v>
    <v>       0.50000000      -0.33333333       0.16666667 </v>
    <v>       0.25000000      -0.25000000       0.16666667 </v>
    <v>       0.33333333      -0.25000000       0.16666667 </v>
    <v>       0.41666667      -0.25000000       0.16666667 </v>
    <v>       0.25000000      -0.16666667       0.16666667 </v>
    <v>       0.33333333      -0.16666667       0.16666667 </v>
    <v>       0.25000000      -0.08333333       0.16666667 </v>
    <v>      -0.00000000       0.00000000       0.25000000 </v>
    <v>       0.08333333       0.00000000       0.25000000 </v>
    <v>       0.16666667       0.00000000       0.25000000 </v>
    <v>       0.25000000      -0.00000000       0.25000000 </v>
    <v>       0.33333333      -0.00000000       0.25000000 </v>
    <v>       0.41666667       0.00000000       0.25000000 </v>
    <v>       0.50000000      -0.00000000       0.25000000 </v>
    <v>      -0.41666667       0.00000000       0.25000000 </v>
    <v>      -0.33333333      -0.00000000       0.25000000 </v>
    <v>      -0.25000000       0.00000000       0.25000000 </v>
    <v>      -0.16666667       0.00000000       0.25000000 </v>
    <v>      -0.08333333      -0.00000000       0.25000000 </v>
    <v>       0.00000000       0.08333333       0.25000000 </v>
    <v>       0.08333333       0.08333333       0.25000000 </v>
    <v>       0.16666667       0.08333333       0.25000000 </v>
    <v>       0.33333333       0.08333333       0.25000000 </v>
    <v>       0.41666667       0.08333333       0.25000000 </v>
    <v>       0.50000000       0.08333333       0.25000000 </v>
    <v>      -0.41666667       0.08333333       0.25000000 </v>
    <v>      -0.33333333       0.08333333       0.25000000 </v>
    <v>      -0.25000000       0.08333333       0.25000000 </v>
    <v>      -0.16666667       0.08333333       0.25000000 </v>
    <v>      -0.08333333       0.08333333       0.25000000 </v>
    <v>       0.00000000       0.16666667       0.25000000 </v>
    <v>       0.08333333       0.16666667       0.25000000 </v>
    <v>       0.33333333       0.16666667       0.25000000 </v>
    <v>       0.41666667       0.16666667       0.25000000 </v>
    <v>       0.50000000       0.16666667       0.25000000 </v>
    <v>      -0.41666667       0.16666667       0.25000000 </v>
    <v>      -0.33333333       0.16666667       0.25000000 </v>
    <v>      -0.25000000       0.16666667       0.25000000 </v>
    <v>      -0.16666667       0.16666667       0.25000000 </v>
    <v>      -0.08333333       0.16666667       0.25000000 </v>
    <v>       0.00000000       0.25000000       0.25000000 </v>
    <v>       0.33333333       0.25000000       0.25000000 </v>
    <v>       0.41666667       0.25000000       0.25000000 </v>
    <v>       0.50000000       0.25000000       0.25000000 </v>
    <v>      -0.41666667       0.25000000       0.25000000 </v>
    <v>      -0.33333333       0.25000000       0.25000000 </v>
    <v>      -0.25000000       0.25000000       0.25000000 </v>
    <v>      -0.16666667       0.25000000       0.25000000 </v>
    <v>      -0.08333333       0.25000000       0.25000000 </v>
    <v>       0.33333333       0.33333333       0.25000000 </v>
    <v>       0.41666667       0.33333333       0.25000000 </v>
    <v>       0.50000000       0.33333333       0.25000000 </v>
    <v>      -0.41666667       0.33333333       0.25000000 </v>
    <v>      -0.33333333       0.33333333       0.25000000 </v>
[...]
       <r>   10.9013    0.0000 </r>
       <r>   11.6065    0.0000 </r>
       <r>   12.5171    0.0000 </r>
       <r>   12.7481    0.0000 </r>
       <r>   14.3044    0.0000 </r>
      </set>
      <set comment="kpoint 158">
       <r>  -28.7148    1.0000 </r>
       <r>  -21.4520    1.0000 </r>
       <r>  -12.5718    1.0000 </r>
       <r>  -12.3040    1.0000 </r>
       <r>  -12.2476    1.0000 </r>
       <r>   -3.0389    1.0000 </r>
       <r>   -2.8924    1.0000 </r>
       <r>   -2.8233    1.0000 </r>
       <r>    5.7769    0.0000 </r>
       <r>    7.3809    0.0000 </r>
       <r>    9.0719    0.0000 </r>
       <r>   10.8303    0.0000 </r>
       <r>   11.2008    0.0000 </r>
       <r>   11.6697    0.0000 </r>
       <r>   13.5171    0.0000 </r>
       <r>   15.2634    0.0000 </r>
      </set>
      <set comment="kpoint 159">
       <r>  -28.7162    1.0000 </r>
       <r>  -21.4450    1.0000 </r>
       <r>  -12.5925    1.0000 </r>
       <r>  -12.2794    1.0000 </r>
       <r>  -12.2794    1.0000 </r>
       <r>   -3.0325    1.0000 </r>
       <r>   -2.8051    1.0000 </r>
       <r>   -2.8051    1.0000 </r>
       <r>    5.5805    0.0000 </r>
       <r>    7.2369    0.0000 </r>
       <r>    9.3836    0.0000 </r>
       <r>   10.8623    0.0000 </r>
       <r>   11.2147    0.0000 </r>
       <r>   11.2147    0.0000 </r>
       <r>   13.9724    0.0000 </r>
       <r>   15.4585    0.0000 </r>
      </set>
      <set comment="kpoint 160">
       <r>  -28.7099    1.0000 </r>
       <r>  -21.4445    1.0000 </r>
       <r>  -12.6329    1.0000 </r>
       <r>  -12.2938    1.0000 </r>
       <r>  -12.2823    1.0000 </r>
       <r>   -2.9747    1.0000 </r>
       <r>   -2.8431    1.0000 </r>
       <r>   -2.8241    1.0000 </r>
       <r>    5.5949    0.0000 </r>
       <r>    7.6402    0.0000 </r>
       <r>    9.0715    0.0000 </r>
       <r>   10.9275    0.0000 </r>
       <r>   11.4574    0.0000 </r>
       <r>   11.7484    0.0000 </r>
       <r>   13.2582    0.0000 </r>
       <r>   15.1589    0.0000 </r>
      </set>
      <set comment="kpoint 161">
       <r>  -28.7074    1.0000 </r>
       <r>  -21.4529    1.0000 </r>
       <r>  -12.6153    1.0000 </r>
       <r>  -12.3055    1.0000 </r>
       <r>  -12.2622    1.0000 </r>
       <r>   -2.9514    1.0000 </r>
       <r>   -2.9477    1.0000 </r>
       <r>   -2.8778    1.0000 </r>
       <r>    5.8492    0.0000 </r>
       <r>    8.0552    0.0000 </r>
       <r>    8.5621    0.0000 </r>
       <r>   10.9788    0.0000 </r>
       <r>   11.3232    0.0000 </r>
       <r>   12.4900    0.0000 </r>
       <r>   12.6367    0.0000 </r>
       <r>   14.9331    0.0000 </r>
      </set>
      <set comment="kpoint 162">
       <r>  -28.7076    1.0000 </r>
       <r>  -21.4461    1.0000 </r>
       <r>  -12.6388    1.0000 </r>
       <r>  -12.3197    1.0000 </r>
       <r>  -12.2614    1.0000 </r>
       <r>   -2.9505    1.0000 </r>
       <r>   -2.8971    1.0000 </r>
       <r>   -2.8225    1.0000 </r>
       <r>    5.6678    0.0000 </r>
       <r>    7.8626    0.0000 </r>
       <r>    8.8142    0.0000 </r>
       <r>   10.9692    0.0000 </r>
       <r>   11.6018    0.0000 </r>
       <r>   11.9781    0.0000 </r>
       <r>   12.9659    0.0000 </r>
       <r>   14.8135    0.0000 </r>
      </set>
      <set comment="kpoint 163">
       <r>  -28.7084    1.0000 </r>
       <r>  -21.4392    1.0000 </r>
       <r>  -12.6629    1.0000 </r>
       <r>  -12.2944    1.0000 </r>
       <r>  -12.2944    1.0000 </r>
       <r>   -2.9535    1.0000 </r>
       <r>   -2.8038    1.0000 </r>
       <r>   -2.8037    1.0000 </r>
       <r>    5.4655    0.0000 </r>
       <r>    7.6625    0.0000 </r>
       <r>    9.2198    0.0000 </r>
       <r>   10.9663    0.0000 </r>
       <r>   11.5995    0.0000 </r>
       <r>   11.5995    0.0000 </r>
       <r>   13.3048    0.0000 </r>
       <r>   14.9981    0.0000 </r>
      </set>
     </set>
    </set>
   </array>
  </eigenvalues>
  <separator name="orbital magnetization" >
   <v name="MAGDIPOLOUT">      0.00000000      0.00000000      0.00000000</v>
  </separator>
  <dos>
   <i name="efermi">     -2.63558522 </i>
   <total>
    <array>
     <dimension dim="1">gridpoints</dimension>
     <dimension dim="2">spin</dimension>
     <field>energy</field>
     <field>total</field>
     <field>integrated</field>
     <set>
      <set comment="spin 1">
       <r>   -31.3756     0.0000     0.0000 </r>
       <r>   -31.1892     0.0000     0.0000 </r>
       <r>   -31.0029     0.0000     0.0000 </r>
       <r>   -30.8166     0.0000     0.0000 </r>
       <r>   -30.6303     0.0000     0.0000 </r>
       <r>   -30.4439     0.0000     0.0000 </r>
       <r>   -30.2576     0.0000     0.0000 </r>
       <r>   -30.0713     0.0000     0.0000 </r>
       <r>   -29.8850     0.0000     0.0000 </r>
       <r>   -29.6987     0.0000     0.0000 </r>
       <r>   -29.5123     0.0000     0.0000 </r>
       <r>   -29.3260     0.0000     0.0000 </r>
       <r>   -29.1397     0.0000     0.0000 </r>
       <r>   -28.9534     0.0000     0.0000 </r>
       <r>   -28.7671     1.5669     0.2919 </r>
       <r>   -28.5807     0.0000     2.0000 </r>
       <r>   -28.3944     0.0000     2.0000 </r>
       <r>   -28.2081     0.0000     2.0000 </r>
       <r>   -28.0218     0.0000     2.0000 </r>
       <r>   -27.8355     0.0000     2.0000 </r>
       <r>   -27.6491     0.0000     2.0000 </r>
       <r>   -27.4628     0.0000     2.0000 </r>
       <r>   -27.2765     0.0000     2.0000 </r>
       <r>   -27.0902     0.0000     2.0000 </r>
       <r>   -26.9039     0.0000     2.0000 </r>
       <r>   -26.7175     0.0000     2.0000 </r>
       <r>   -26.5312     0.0000     2.0000 </r>
       <r>   -26.3449     0.0000     2.0000 </r>
       <r>   -26.1586     0.0000     2.0000 </r>
       <r>   -25.9723     0.0000     2.0000 </r>
       <r>   -25.7859     0.0000     2.0000 </r>
       <r>   -25.5996     0.0000     2.0000 </r>
       <r>   -25.4133     0.0000     2.0000 </r>
       <r>   -25.2270     0.0000     2.0000 </r>
       <r>   -25.0406     0.0000     2.0000 </r>
       <r>   -24.8543     0.0000     2.0000 </r>
       <r>   -24.6680     0.0000     2.0000 </r>
       <r>   -24.4817     0.0000     2.0000 </r>
       <r>   -24.2954     0.0000     2.0000 </r>
       <r>   -24.1090     0.0000     2.0000 </r>
       <r>   -23.9227     0.0000     2.0000 </r>
       <r>   -23.7364     0.0000     2.0000 </r>
       <r>   -23.5501     0.0000     2.0000 </r>
       <r>   -23.3638     0.0000     2.0000 </r>
       <r>   -23.1774     0.0000     2.0000 </r>
       <r>   -22.9911     0.0000     2.0000 </r>
       <r>   -22.8048     0.0000     2.0000 </r>
       <r>   -22.6185     0.0000     2.0000 </r>
       <r>   -22.4322     0.0000     2.0000 </r>
       <r>   -22.2458     0.0000     2.0000 </r>
       <r>   -22.0595     0.0000     2.0000 </r>
       <r>   -21.8732     0.0000     2.0000 </r>
       <r>   -21.6869     0.0000     2.0000 </r>
       <r>   -21.5006     0.9491     2.1768 </r>
       <r>   -21.3142     0.0000     4.0000 </r>
       <r>   -21.1279     0.0000     4.0000 </r>
       <r>   -20.9416     0.0000     4.0000 </r>
       <r>   -20.7553     0.0000     4.0000 </r>
       <r>   -20.5690     0.0000     4.0000 </r>
       <r>   -20.3826     0.0000     4.0000 </r>
       <r>   -20.1963     0.0000     4.0000 </r>
       <r>   -20.0100     0.0000     4.0000 </r>
       <r>   -19.8237     0.0000     4.0000 </r>
       <r>   -19.6373     0.0000     4.0000 </r>
       <r>   -19.4510     0.0000     4.0000 </r>
       <r>   -19.2647     0.0000     4.0000 </r>
       <r>   -19.0784     0.0000     4.0000 </r>
       <r>   -18.8921     0.0000     4.0000 </r>
       <r>   -18.7057     0.0000     4.0000 </r>
       <r>   -18.5194     0.0000     4.0000 </r>
       <r>   -18.3331     0.0000     4.0000 </r>
       <r>   -18.1468     0.0000     4.0000 </r>
       <r>   -17.9605     0.0000     4.0000 </r>
       <r>   -17.7741     0.0000     4.0000 </r>
       <r>   -17.5878     0.0000     4.0000 </r>
       <r>   -17.4015     0.0000     4.0000 </r>
       <r>   -17.2152     0.0000     4.0000 </r>
       <r>   -17.0289     0.0000     4.0000 </r>
       <r>   -16.8425     0.0000     4.0000 </r>
       <r>   -16.6562     0.0000     4.0000 </r>
       <r>   -16.4699     0.0000     4.0000 </r>
       <r>   -16.2836     0.0000     4.0000 </r>
       <r>   -16.0973     0.0000     4.0000 </r>
       <r>   -15.9109     0.0000     4.0000 </r>
       <r>   -15.7246     0.0000     4.0000 </r>
       <r>   -15.5383     0.0000     4.0000 </r>
       <r>   -15.3520     0.0000     4.0000 </r>
       <r>   -15.1657     0.0000     4.0000 </r>
       <r>   -14.9793     0.0000     4.0000 </r>
       <r>   -14.7930     0.0000     4.0000 </r>
       <r>   -14.6067     0.0000     4.0000 </r>
       <r>   -14.4204     0.0000     4.0000 </r>
       <r>   -14.2340     0.0000     4.0000 </r>
       <r>   -14.0477     0.0000     4.0000 </r>
       <r>   -13.8614     0.0000     4.0000 </r>
       <r>   -13.6751     0.0000     4.0000 </r>
       <r>   -13.4888     0.0000     4.0000 </r>
       <r>   -13.3024     0.0000     4.0000 </r>
       <r>   -13.1161     0.0000     4.0000 </r>
       <r>   -12.9298     0.0000     4.0000 </r>
       <r>   -12.7435     0.0000     4.0000 </r>
       <r>   -12.5572     0.8501     4.1758 </r>
       <r>   -12.3708     3.5119     5.2898 </r>
       <r>   -12.1845     6.4531     7.8887 </r>
       <r>   -11.9982     0.4535    10.0000 </r>
       <r>   -11.8119     0.0000    10.0000 </r>
       <r>   -11.6256     0.0000    10.0000 </r>
       <r>   -11.4392     0.0000    10.0000 </r>
       <r>   -11.2529     0.0000    10.0000 </r>
       <r>   -11.0666     0.0000    10.0000 </r>
       <r>   -10.8803     0.0000    10.0000 </r>
       <r>   -10.6940     0.0000    10.0000 </r>
       <r>   -10.5076     0.0000    10.0000 </r>
       <r>   -10.3213     0.0000    10.0000 </r>
       <r>   -10.1350     0.0000    10.0000 </r>
       <r>    -9.9487     0.0000    10.0000 </r>
       <r>    -9.7624     0.0000    10.0000 </r>
       <r>    -9.5760     0.0000    10.0000 </r>
       <r>    -9.3897     0.0000    10.0000 </r>
       <r>    -9.2034     0.0000    10.0000 </r>
       <r>    -9.0171     0.0000    10.0000 </r>
       <r>    -8.8307     0.0000    10.0000 </r>
       <r>    -8.6444     0.0000    10.0000 </r>
       <r>    -8.4581     0.0000    10.0000 </r>
       <r>    -8.2718     0.0000    10.0000 </r>
       <r>    -8.0855     0.0000    10.0000 </r>
       <r>    -7.8991     0.0000    10.0000 </r>
       <r>    -7.7128     0.0000    10.0000 </r>
       <r>    -7.5265     0.0000    10.0000 </r>
       <r>    -7.3402     0.0000    10.0000 </r>
       <r>    -7.1539     0.0000    10.0000 </r>
       <r>    -6.9675     0.0000    10.0000 </r>
       <r>    -6.7812     0.0000    10.0000 </r>
       <r>    -6.5949     0.0000    10.0000 </r>
       <r>    -6.4086     0.0000    10.0000 </r>
       <r>    -6.2223     0.0000    10.0000 </r>
       <r>    -6.0359     0.0000    10.0000 </r>
       <r>    -5.8496     0.0000    10.0000 </r>
       <r>    -5.6633     0.0000    10.0000 </r>
       <r>    -5.4770     0.0000    10.0000 </r>
       <r>    -5.2907     0.0000    10.0000 </r>
       <r>    -5.1043     0.0000    10.0000 </r>
       <r>    -4.9180     0.0000    10.0000 </r>
       <r>    -4.7317     0.0000    10.0000 </r>
       <r>    -4.5454     0.0000    10.0000 </r>
       <r>    -4.3591     0.0000    10.0000 </r>
       <r>    -4.1727     0.0000    10.0000 </r>
       <r>    -3.9864     0.0000    10.0000 </r>
       <r>    -3.8001     0.0000    10.0000 </r>
       <r>    -3.6138     0.0000    10.0000 </r>
       <r>    -3.4274     0.5141    10.1652 </r>
       <r>    -3.2411     2.6947    11.1225 </r>
       <r>    -3.0548     4.1312    12.3646 </r>
       <r>    -2.8685     6.0978    15.0817 </r>
       <r>    -2.6822     0.0932    16.0000 </r>
       <r>    -2.4958     0.0000    16.0000 </r>
       <r>    -2.3095     0.0000    16.0000 </r>
       <r>    -2.1232     0.0000    16.0000 </r>
       <r>    -1.9369     0.0000    16.0000 </r>
       <r>    -1.7506     0.0000    16.0000 </r>
       <r>    -1.5642     0.0000    16.0000 </r>
       <r>    -1.3779     0.0000    16.0000 </r>
       <r>    -1.1916     0.0000    16.0000 </r>
       <r>    -1.0053     0.0000    16.0000 </r>
       <r>    -0.8190     0.0000    16.0000 </r>
       <r>    -0.6326     0.0000    16.0000 </r>
       <r>    -0.4463     0.0000    16.0000 </r>
       <r>    -0.2600     0.0000    16.0000 </r>
       <r>    -0.0737     0.0000    16.0000 </r>
       <r>     0.1126     0.0000    16.0000 </r>
       <r>     0.2990     0.0000    16.0000 </r>
       <r>     0.4853     0.0000    16.0000 </r>
       <r>     0.6716     0.0000    16.0000 </r>
       <r>     0.8579     0.0000    16.0000 </r>
       <r>     1.0442     0.0000    16.0000 </r>
       <r>     1.2306     0.0000    16.0000 </r>
       <r>     1.4169     0.0000    16.0000 </r>
       <r>     1.6032     0.0000    16.0000 </r>
       <r>     1.7895     0.0000    16.0000 </r>
       <r>     1.9759     0.0000    16.0000 </r>
       <r>     2.1622     0.0000    16.0000 </r>
       <r>     2.3485     0.0000    16.0000 </r>
       <r>     2.5348     0.0000    16.0000 </r>
       <r>     2.7211     0.0000    16.0000 </r>
       <r>     2.9075     0.0000    16.0000 </r>
       <r>     3.0938     0.0000    16.0000 </r>
       <r>     3.2801     0.0000    16.0000 </r>
       <r>     3.4664     0.0000    16.0000 </r>
       <r>     3.6527     0.0000    16.0012 </r>
       <r>     3.8391     0.0373    16.0174 </r>
       <r>     4.0254     0.0133    16.0198 </r>
       <r>     4.2117     0.1390    16.0572 </r>
       <r>     4.3980     0.0000    16.0683 </r>
       <r>     4.5843     0.0000    16.0752 </r>
       <r>     4.7707     0.0000    16.1308 </r>
       <r>     4.9570     0.1491    16.1586 </r>
       <r>     5.1433     0.0000    16.1956 </r>
       <r>     5.3296     0.0750    16.2096 </r>
       <r>     5.5159     0.0189    16.3033 </r>
       <r>     5.7023     0.2856    16.4189 </r>
       <r>     5.8886     0.2733    16.5139 </r>
       <r>     6.0749     0.0594    16.6986 </r>
       <r>     6.2612     0.8632    17.0150 </r>
       <r>     6.4475     0.7507    17.2741 </r>
       <r>     6.6339     1.1266    17.7585 </r>
       <r>     6.8202     0.4871    18.1533 </r>
       <r>     7.0065     0.2729    18.3356 </r>
       <r>     7.1928     0.8823    18.8311 </r>
       <r>     7.3792     0.5394    19.0519 </r>
       <r>     7.5655     0.6241    19.6140 </r>
       <r>     7.7518     0.2125    19.7722 </r>
       <r>     7.9381     0.7205    19.9664 </r>
       <r>     8.1244     0.1739    20.0208 </r>
       <r>     8.3108     0.0628    20.0603 </r>
       <r>     8.4971     0.4473    20.2060 </r>
       <r>     8.6834     0.4710    20.4535 </r>
       <r>     8.8697     0.8128    20.8551 </r>
       <r>     9.0560     2.0792    21.3550 </r>
       <r>     9.2424     1.4313    22.0028 </r>
       <r>     9.4287     1.4665    22.5036 </r>
       <r>     9.6150     0.3328    22.6558 </r>
       <r>     9.8013     1.0392    22.9703 </r>
       <r>     9.9876     0.3646    23.1339 </r>
       <r>    10.1740     0.3179    23.5257 </r>
       <r>    10.3603     0.6864    23.8652 </r>
       <r>    10.5466     1.7901    24.2699 </r>
       <r>    10.7329     0.8053    24.7600 </r>
       <r>    10.9192     1.2226    25.1271 </r>
       <r>    11.1056     1.3684    25.6647 </r>
       <r>    11.2919     0.3993    26.2341 </r>
       <r>    11.4782     0.7452    26.6504 </r>
       <r>    11.6645     0.4075    26.7820 </r>
       <r>    11.8508     0.7784    27.0964 </r>
       <r>    12.0372     0.2906    27.3250 </r>
       <r>    12.2235     0.6082    27.4397 </r>
       <r>    12.4098     1.2300    27.8889 </r>
       <r>    12.5961     0.3727    28.0000 </r>
       <r>    12.7825     0.6505    28.1907 </r>
       <r>    12.9688     0.2357    28.2384 </r>
       <r>    13.1551     0.7430    28.5412 </r>
       <r>    13.3414     0.1678    28.7118 </r>
       <r>    13.5277     0.2884    28.8489 </r>
       <r>    13.7141     0.0020    29.0918 </r>
       <r>    13.9004     0.0000    29.2164 </r>
       <r>    14.0867     0.2674    29.2732 </r>
       <r>    14.2730     0.4053    29.3637 </r>
       <r>    14.4593     0.1491    29.4977 </r>
       <r>    14.6457     0.4266    29.5772 </r>
       <r>    14.8320     0.8695    29.7801 </r>
       <r>    15.0183     0.3425    29.9944 </r>
       <r>    15.2046     0.1708    30.1603 </r>
       <r>    15.3909     0.0000    30.2905 </r>
       <r>    15.5773     1.0577    30.4945 </r>
       <r>    15.7636     0.3716    30.6329 </r>
       <r>    15.9499     1.0359    30.9928 </r>
       <r>    16.1362     0.0497    31.0706 </r>
       <r>    16.3225     0.7445    31.2371 </r>
       <r>    16.5089     0.7454    31.4132 </r>
       <r>    16.6952     0.0813    31.5603 </r>
       <r>    16.8815     0.0000    31.5868 </r>
       <r>    17.0678     0.3657    31.6549 </r>
       <r>    17.2541     0.0000    31.6979 </r>
       <r>    17.4405     0.1491    31.7257 </r>
       <r>    17.6268     0.1467    31.7878 </r>
       <r>    17.8131     0.0330    31.8036 </r>
       <r>    17.9994     0.0000    31.8044 </r>
       <r>    18.1858     0.1491    31.8322 </r>
       <r>    18.3721     0.1573    31.8615 </r>
       <r>    18.5584     0.0000    31.9248 </r>
       <r>    18.7447     0.0000    31.9248 </r>
       <r>    18.9310     0.0000    31.9248 </r>
       <r>    19.1174     0.0000    31.9248 </r>
       <r>    19.3037     0.0000    31.9248 </r>
       <r>    19.4900     0.0000    31.9248 </r>
       <r>    19.6763     0.0692    31.9377 </r>
       <r>    19.8626     0.0000    31.9410 </r>
       <r>    20.0490     0.0000    31.9687 </r>
       <r>    20.2353     0.0727    31.9823 </r>
       <r>    20.4216     0.0000    31.9826 </r>
       <r>    20.6079     0.0000    31.9826 </r>
       <r>    20.7942     0.0000    31.9826 </r>
       <r>    20.9806     0.0000    31.9826 </r>
       <r>    21.1669     0.0000    31.9826 </r>
       <r>    21.3532     0.0002    31.9827 </r>
       <r>    21.5395     0.0000    31.9988 </r>
       <r>    21.7258     0.0000    31.9988 </r>
       <r>    21.9122     0.0000    31.9988 </r>
       <r>    22.0985     0.0000    32.0000 </r>
       <r>    22.2848     0.0000    32.0000 </r>
       <r>    22.4711     0.0000    32.0000 </r>
       <r>    22.6574     0.0000    32.0000 </r>
       <r>    22.8438     0.0000    32.0000 </r>
       <r>    23.0301     0.0000    32.0000 </r>
       <r>    23.2164     0.0000    32.0000 </r>
       <r>    23.4027     0.0000    32.0000 </r>
       <r>    23.5891     0.0000    32.0000 </r>
       <r>    23.7754     0.0000    32.0000 </r>
       <r>    23.9617     0.0000    32.0000 </r>
       <r>    24.1480     0.0000    32.0000 </r>
       <r>    24.3343     0.0000    32.0000 </r>
       <r>    24.5207     0.0000    32.0000 </r>
      </set>
     </set>
    </array>
   </total>
  </dos>
 </calculation>
 <structure name="finalpos" >
  <crystal>
   <varray name="basis" >
    <v>      -2.65441320       0.00000000       2.65441320 </v>
    <v>       0.00000000       2.65441320       2.65441320 </v>
    <v>      -2.65441320       2.65441320       0.00000000 </v>
   </varray>
   <i name="volume">     37.40551007 </i>
   <varray name="rec_basis" >
    <v>      -0.18836555      -0.18836555       0.18836555 </v>
    <v>       0.18836555       0.18836555       0.18836555 </v>
    <v>      -0.18836555       0.18836555      -0.18836555 </v>
   </varray>
  </crystal>
  <varray name="positions" >
   <v>       0.00000000       0.00000000       0.00000000 </v>
   <v>       0.49999996       0.50000004       0.49999996 </v>
  </varray>
 </structure>
</modeling>
