 
             +---------------------------------------------------+
             |                                                   |
             |                   WANNIER90                       |
             |                                                   |
             +---------------------------------------------------+
             |                                                   |
             |        Welcome to the Maximally-Localized         |
             |        Generalized Wannier Functions code         |
             |            http://www.wannier.org                 |
             |                                                   |
             |                                                   |
             |  Wannier90 Developer Group:                       |
             |    Giovanni Pizzi    (EPFL)                       |
             |    Valerio Vitale    (Cambridge)                  |
             |    David Vanderbilt  (Rutgers University)         |
             |    Nicola Marzari    (EPFL)                       |
             |    Ivo Souza         (Universidad del Pais Vasco) |
             |    Arash A. Mostofi  (Imperial College London)    |
             |    Jonathan R. Yates (University of Oxford)       |
             |                                                   |
             |  For the full list of Wannier90 3.x authors,      |
             |  please check the code documentation and the      |
             |  README on the GitHub page of the code            |
             |                                                   |
             |                                                   |
             |  Please cite                                      |
             |                                                   |
             |  [ref] "Wannier90 as a community code:            |
             |        new features and applications",            |
             |        G. Pizzi et al., J. Phys. Cond. Matt. 32,  |
             |        165902 (2020).                             |
             |        http://doi.org/10.1088/1361-648X/ab51ff    |
             |                                                   |
             |  in any publications arising from the use of      |
             |  this code. For the method please cite            |
             |                                                   |
             |  [ref] "Maximally Localized Generalised Wannier   |
             |         Functions for Composite Energy Bands"     |
             |         N. Marzari and D. Vanderbilt              |
             |         Phys. Rev. B 56 12847 (1997)              |
             |                                                   |
             |  [ref] "Maximally Localized Wannier Functions     |
             |         for Entangled Energy Bands"               |
             |         I. Souza, N. Marzari and D. Vanderbilt    |
             |         Phys. Rev. B 65 035109 (2001)             |
             |                                                   |
             |                                                   |
             | Copyright (c) 1996-2020                           |
             |        The Wannier90 Developer Group and          |
             |        individual contributors                    |
             |                                                   |
             |      Release: 3.1.0        5th March    2020      |
             |                                                   |
             | This program is free software; you can            |
             | redistribute it and/or modify it under the terms  |
             | of the GNU General Public License as published by |
             | the Free Software Foundation; either version 2 of |
             | the License, or (at your option) any later version|
             |                                                   |
             | This program is distributed in the hope that it   |
             | will be useful, but WITHOUT ANY WARRANTY; without |
             | even the implied warranty of MERCHANTABILITY or   |
             | FITNESS FOR A PARTICULAR PURPOSE. See the GNU     |
             | General Public License for more details.          |
             |                                                   |
             | You should have received a copy of the GNU General|
             | Public License along with this program; if not,   |
             | write to the Free Software Foundation, Inc.,      |
             | 675 Mass Ave, Cambridge, MA 02139, USA.           |
             |                                                   |
             +---------------------------------------------------+
             |    Execution started on  8Apr2024 at 15:11:57     |
             +---------------------------------------------------+
 
 ******************************************************************************
 * -> Using CODATA 2006 constant values                                       *
 *    (http://physics.nist.gov/cuu/Constants/index.html)                      *
 * -> Using Bohr value from CODATA                                            *
 ******************************************************************************
 

 Running in parallel on  16 CPUs

 
                                    ------
                                    SYSTEM
                                    ------
 
                              Lattice Vectors (Ang)
                    a_1    -2.097001   0.000000   2.097001
                    a_2     0.000000   2.097001   2.097001
                    a_3    -2.097001   2.097001   0.000000
 
                   Unit Cell Volume:      18.44276  (Ang^3)
 
                        Reciprocal-Space Vectors (Ang^-1)
                    b_1    -1.498136  -1.498136   1.498136
                    b_2     1.498136   1.498136   1.498136
                    b_3    -1.498136   1.498136  -1.498136
  
 *----------------------------------------------------------------------------*
 |   Site       Fractional Coordinate          Cartesian Coordinate (Ang)     |
 +----------------------------------------------------------------------------+
 | Mg   1   0.00000   0.00000   0.00000   |    0.00000   0.00000   0.00000    |
 | O    1   0.50000   0.50000   0.50000   |   -2.09700   2.09700   2.09700    |
 *----------------------------------------------------------------------------*
                                ------------
                                K-POINT GRID
                                ------------
  
             Grid size = 12 x 12 x 12      Total points = 1728
  
  
 *---------------------------------- MAIN ------------------------------------*
 |  Number of Wannier Functions               :                 3             |
 |  Number of Objective Wannier Functions     :                 3             |
 |  Number of input Bloch states              :                 3             |
 |  Output verbosity (1=low, 5=high)          :                 1             |
 |  Timing Level (1=low, 5=high)              :                 1             |
 |  Optimisation (0=memory, 3=speed)          :                 3             |
 |  Length Unit                               :               Ang             |
 |  Post-processing setup (write *.nnkp)      :                 F             |
 |  Using Gamma-only branch of algorithms     :                 F             |
 *----------------------------------------------------------------------------*
 *------------------------------- WANNIERISE ---------------------------------*
 |  Total number of iterations                :               500             |
 |  Number of CG steps before reset           :                 5             |
 |  Trial step length for line search         :             2.000             |
 |  Convergence tolerence                     :         0.100E-09             |
 |  Convergence window                        :                -1             |
 |  Iterations between writing output         :                 1             |
 |  Iterations between backing up to disk     :               100             |
 |  Write r^2_nm to file                      :                 F             |
 |  Write xyz WF centres to file              :                 F             |
 |  Write on-site energies <0n|H|0n> to file  :                 F             |
 |  Use guiding centre to control phases      :                 F             |
 |  Use phases for initial projections        :                 F             |
 *----------------------------------------------------------------------------*
 Time to read parameters        0.145 (sec)

 *---------------------------------- K-MESH ----------------------------------*
 +----------------------------------------------------------------------------+
 |                    Distance to Nearest-Neighbour Shells                    |
 |                    ------------------------------------                    |
 |          Shell             Distance (Ang^-1)          Multiplicity         |
 |          -----             -----------------          ------------         |
 |             1                   0.216237                      8            |
 |             2                   0.249689                      6            |
 |             3                   0.353114                     12            |
 |             4                   0.414063                     24            |
 |             5                   0.432475                      8            |
 |             6                   0.499379                      6            |
 |             7                   0.544185                     24            |
 |             8                   0.558322                     24            |
 |             9                   0.611611                     24            |
 |            10                   0.648712                     32            |
 |            11                   0.706228                     12            |
 |            12                   0.738591                     48            |
 |            13                   0.749068                     30            |
 |            14                   0.789587                     24            |
 |            15                   0.818661                     24            |
 |            16                   0.828126                     24            |
 |            17                   0.864949                      8            |
 |            18                   0.891569                     48            |
 |            19                   0.900268                     24            |
 |            20                   0.934252                     48            |
 |            21                   0.958950                     72            |
 |            22                   0.998757                      6            |
 |            23                   1.021898                     24            |
 |            24                   1.029495                     48            |
 |            25                   1.059342                     36            |
 |            26                   1.081187                     56            |
 |            27                   1.088371                     24            |
 |            28                   1.116645                     24            |
 |            29                   1.137389                     72            |
 |            30                   1.144220                     48            |
 |            31                   1.171147                     24            |
 |            32                   1.190942                     48            |
 |            33                   1.223223                     24            |
 |            34                   1.242189                     72            |
 |            35                   1.248447                     30            |
 |            36                   1.273171                     72            |
 +----------------------------------------------------------------------------+
 | The b-vectors are chosen automatically                                     |
 | The following shells are used:   1                                         |
 +----------------------------------------------------------------------------+
 |                        Shell   # Nearest-Neighbours                        |
 |                        -----   --------------------                        |
 |                          1               8                                 |
 +----------------------------------------------------------------------------+
 | Completeness relation is fully satisfied [Eq. (B1), PRB 56, 12847 (1997)]  |
 +----------------------------------------------------------------------------+
 |                  b_k Vectors (Ang^-1) and Weights (Ang^2)                  |
 |                  ----------------------------------------                  |
 |            No.         b_k(x)      b_k(y)      b_k(z)        w_b           |
 |            ---        --------------------------------     --------        |
 |             1        -0.124845    0.124845   -0.124845     8.019921        |
 |             2         0.124845    0.124845    0.124845     8.019921        |
 |             3        -0.124845   -0.124845    0.124845     8.019921        |
 |             4        -0.124845    0.124845    0.124845     8.019921        |
 |             5         0.124845   -0.124845    0.124845     8.019921        |
 |             6        -0.124845   -0.124845   -0.124845     8.019921        |
 |             7         0.124845    0.124845   -0.124845     8.019921        |
 |             8         0.124845   -0.124845   -0.124845     8.019921        |
 +----------------------------------------------------------------------------+
 |                           b_k Directions (Ang^-1)                          |
 |                           -----------------------                          |
 |            No.           x           y           z                         |
 |            ---        --------------------------------                     |
 |             1        -0.124845    0.124845   -0.124845                     |
 |             2         0.124845    0.124845    0.124845                     |
 |             3        -0.124845   -0.124845    0.124845                     |
 |             4        -0.124845    0.124845    0.124845                     |
 +----------------------------------------------------------------------------+
  
 Time to get kmesh              0.715 (sec)
 *============================================================================*
 |                              MEMORY ESTIMATE                               |
 |         Maximum RAM allocated during each phase of the calculation         |
 *============================================================================*
 |                            Wannierise:            7.00 Mb                  |
 |                          plot_wannier:            7.00 Mb                  |
 *----------------------------------------------------------------------------*
  
 Starting a new Wannier90 calculation ...


 Reading overlaps from mp-1265.mmn    :  Created on  8Apr2024 at 15:11:40

 Reading projections from mp-1265.amn :  Created on  8Apr2024 at 15:11:39  with SCDM

 Time to read overlaps          0.113 (sec)

 Writing checkpoint file mp-1265.chk... done

 
 *------------------------------- WANNIERISE ---------------------------------*
 +--------------------------------------------------------------------+<-- CONV
 | Iter  Delta Spread     RMS Gradient      Spread (Ang^2)      Time  |<-- CONV
 +--------------------------------------------------------------------+<-- CONV
 
 ------------------------------------------------------------------------------
 Initial State
  WF centre and spread    1  (  2.099327,  0.001418, -0.000375 )     0.98571203
  WF centre and spread    2  ( -2.099915,  0.000630, -0.001039 )     0.98181024
  WF centre and spread    3  (  0.000477, -0.001722,  2.098952 )     0.98763129
  Sum of centres and spreads ( -0.000111,  0.000326,  2.097537 )     2.95515356
 
      0     0.296E+01     0.0000000000        2.9551546133       0.00  <-- CONV
        O_D=      0.0954314 O_OD=      0.1115028 O_TOT=      2.9551546 <-- SPRD
 ------------------------------------------------------------------------------
 Cycle:      1
  WF centre and spread    1  (  2.097271,  0.000179, -0.000040 )     0.92799055
  WF centre and spread    2  ( -2.097331,  0.000099, -0.000093 )     0.92772967
  WF centre and spread    3  (  0.000054, -0.000240,  2.097214 )     0.92844463
  Sum of centres and spreads ( -0.000007,  0.000038,  2.097081 )     2.78416485
 
      1    -0.171E+00     0.0628928466        2.7841659042       0.01  <-- CONV
        O_D=      0.0113281 O_OD=      0.0246174 O_TOT=      2.7841659 <-- SPRD
 Delta: O_D= -0.8410336E-01 O_OD= -0.8688535E-01 O_TOT= -0.1709887E+00 <-- DLTA
 ------------------------------------------------------------------------------
 Cycle:      2
  WF centre and spread    1  (  2.097115,  0.000074, -0.000014 )     0.92245202
  WF centre and spread    2  ( -2.097138,  0.000049, -0.000028 )     0.92250293
  WF centre and spread    3  (  0.000021, -0.000106,  2.097081 )     0.92265113
  Sum of centres and spreads ( -0.000002,  0.000017,  2.097040 )     2.76760609
 
      2    -0.166E-01     0.0512107125        2.7676071427       0.01  <-- CONV
        O_D=      0.0034485 O_OD=      0.0159382 O_TOT=      2.7676071 <-- SPRD
 Delta: O_D= -0.7879546E-02 O_OD= -0.8679215E-02 O_TOT= -0.1655876E-01 <-- DLTA
 ------------------------------------------------------------------------------
 Cycle:      3
  WF centre and spread    1  (  2.097059,  0.000038, -0.000004 )     0.92053055
  WF centre and spread    2  ( -2.097071,  0.000027, -0.000010 )     0.92061305
  WF centre and spread    3  (  0.000010, -0.000054,  2.097039 )     0.92081522
  Sum of centres and spreads ( -0.000002,  0.000011,  2.097025 )     2.76195881
 
      3    -0.565E-02     0.0380803408        2.7619598697       0.02  <-- CONV
        O_D=      0.0012639 O_OD=      0.0124755 O_TOT=      2.7619599 <-- SPRD
 Delta: O_D= -0.2184565E-02 O_OD= -0.3462708E-02 O_TOT= -0.5647273E-02 <-- DLTA
 ------------------------------------------------------------------------------
 Cycle:      4
  WF centre and spread    1  (  2.097036,  0.000024, -0.000003 )     0.91988501
  WF centre and spread    2  ( -2.097044,  0.000016, -0.000006 )     0.91997651
  WF centre and spread    3  (  0.000006, -0.000033,  2.097025 )     0.92019553
  Sum of centres and spreads ( -0.000002,  0.000007,  2.097016 )     2.76005705
 
      4    -0.190E-02     0.0202067980        2.7600581046       0.02  <-- CONV
        O_D=      0.0004692 O_OD=      0.0113684 O_TOT=      2.7600581 <-- SPRD
 Delta: O_D= -0.7947121E-03 O_OD= -0.1107053E-02 O_TOT= -0.1901765E-02 <-- DLTA
 ------------------------------------------------------------------------------
 Cycle:      5
  WF centre and spread    1  (  2.097024,  0.000016, -0.000002 )     0.91964505
  WF centre and spread    2  ( -2.097029,  0.000010, -0.000005 )     0.91974208
  WF centre and spread    3  (  0.000004, -0.000021,  2.097017 )     0.91997505
  Sum of centres and spreads ( -0.000002,  0.000005,  2.097010 )     2.75936218
 
      5    -0.695E-03     0.0126675608        2.7593632313       0.03  <-- CONV
        O_D=      0.0001816 O_OD=      0.0109612 O_TOT=      2.7593632 <-- SPRD
 Delta: O_D= -0.2876666E-03 O_OD= -0.4072067E-03 O_TOT= -0.6948733E-03 <-- DLTA
 ------------------------------------------------------------------------------
 Cycle:      6
  WF centre and spread    1  (  2.097016,  0.000011, -0.000002 )     0.91955971
  WF centre and spread    2  ( -2.097020,  0.000006, -0.000004 )     0.91965945
  WF centre and spread    3  (  0.000003, -0.000014,  2.097013 )     0.91990315
  Sum of centres and spreads ( -0.000001,  0.000003,  2.097007 )     2.75912231
 
      6    -0.240E-03     0.0076495362        2.7591233661       0.03  <-- CONV
        O_D=      0.0000726 O_OD=      0.0108303 O_TOT=      2.7591234 <-- SPRD
 Delta: O_D= -0.1089276E-03 O_OD= -0.1309376E-03 O_TOT= -0.2398652E-03 <-- DLTA
 ------------------------------------------------------------------------------
 Cycle:      7
  WF centre and spread    1  (  2.097015,  0.000010, -0.000002 )     0.91953813
  WF centre and spread    2  ( -2.097018,  0.000006, -0.000004 )     0.91963851
  WF centre and spread    3  (  0.000002, -0.000013,  2.097012 )     0.91988633
  Sum of centres and spreads ( -0.000001,  0.000003,  2.097007 )     2.75906297
 
      7    -0.593E-04     0.0041932908        2.7590640262       0.04  <-- CONV
        O_D=      0.0000433 O_OD=      0.0108003 O_TOT=      2.7590640 <-- SPRD
 Delta: O_D= -0.2934981E-04 O_OD= -0.2999014E-04 O_TOT= -0.5933996E-04 <-- DLTA
 ------------------------------------------------------------------------------
 Cycle:      8
  WF centre and spread    1  (  2.097012,  0.000008, -0.000002 )     0.91952159
  WF centre and spread    2  ( -2.097015,  0.000005, -0.000003 )     0.91962209
  WF centre and spread    3  (  0.000002, -0.000011,  2.097010 )     0.91987764
  Sum of centres and spreads ( -0.000001,  0.000002,  2.097005 )     2.75902132
 
      8    -0.417E-04     0.0027468207        2.7590223718       0.05  <-- CONV
        O_D=      0.0000226 O_OD=      0.0107794 O_TOT=      2.7590224 <-- SPRD
 Delta: O_D= -0.2071129E-04 O_OD= -0.2094312E-04 O_TOT= -0.4165440E-04 <-- DLTA
 ------------------------------------------------------------------------------
 Cycle:      9
  WF centre and spread    1  (  2.097009,  0.000006, -0.000001 )     0.91951167
  WF centre and spread    2  ( -2.097011,  0.000003, -0.000002 )     0.91961220
  WF centre and spread    3  (  0.000002, -0.000008,  2.097008 )     0.91987357
  Sum of centres and spreads ( -0.000000,  0.000001,  2.097004 )     2.75899744
 
      9    -0.239E-04     0.0021717090        2.7589984975       0.05  <-- CONV
        O_D=      0.0000103 O_OD=      0.0107678 O_TOT=      2.7589985 <-- SPRD
 Delta: O_D= -0.1232242E-04 O_OD= -0.1155187E-04 O_TOT= -0.2387429E-04 <-- DLTA
 ------------------------------------------------------------------------------
 Cycle:     10
  WF centre and spread    1  (  2.097007,  0.000004, -0.000001 )     0.91950734
  WF centre and spread    2  ( -2.097009,  0.000002, -0.000002 )     0.91960788
  WF centre and spread    3  (  0.000001, -0.000006,  2.097007 )     0.91987130
  Sum of centres and spreads (  0.000000,  0.000001,  2.097003 )     2.75898653
 
     10    -0.109E-04     0.0014912912        2.7589875841       0.06  <-- CONV
        O_D=      0.0000042 O_OD=      0.0107629 O_TOT=      2.7589876 <-- SPRD
 Delta: O_D= -0.6053094E-05 O_OD= -0.4860315E-05 O_TOT= -0.1091341E-04 <-- DLTA
 ------------------------------------------------------------------------------
 Cycle:     11
  WF centre and spread    1  (  2.097006,  0.000004, -0.000001 )     0.91950599
  WF centre and spread    2  ( -2.097007,  0.000002, -0.000002 )     0.91960648
  WF centre and spread    3  (  0.000001, -0.000005,  2.097006 )     0.91987009
  Sum of centres and spreads (  0.000000,  0.000001,  2.097003 )     2.75898255
 
     11    -0.397E-05     0.0009630322        2.7589836094       0.06  <-- CONV
        O_D=      0.0000021 O_OD=      0.0107611 O_TOT=      2.7589836 <-- SPRD
 Delta: O_D= -0.2096863E-05 O_OD= -0.1877759E-05 O_TOT= -0.3974622E-05 <-- DLTA
 ------------------------------------------------------------------------------
 Cycle:     12
  WF centre and spread    1  (  2.097006,  0.000003, -0.000001 )     0.91950566
  WF centre and spread    2  ( -2.097006,  0.000002, -0.000001 )     0.91960609
  WF centre and spread    3  (  0.000001, -0.000004,  2.097005 )     0.91986895
  Sum of centres and spreads (  0.000000,  0.000001,  2.097003 )     2.75898070
 
     12    -0.185E-05     0.0005588321        2.7589817544       0.06  <-- CONV
        O_D=      0.0000011 O_OD=      0.0107603 O_TOT=      2.7589818 <-- SPRD
 Delta: O_D= -0.1046212E-05 O_OD= -0.8087875E-06 O_TOT= -0.1854999E-05 <-- DLTA
 ------------------------------------------------------------------------------
 Cycle:     13
  WF centre and spread    1  (  2.097005,  0.000003, -0.000001 )     0.91950560
  WF centre and spread    2  ( -2.097006,  0.000002, -0.000001 )     0.91960601
  WF centre and spread    3  (  0.000001, -0.000004,  2.097005 )     0.91986860
  Sum of centres and spreads (  0.000000,  0.000001,  2.097003 )     2.75898021
 
     13    -0.493E-06     0.0004005538        2.7589812616       0.07  <-- CONV
        O_D=      0.0000008 O_OD=      0.0107600 O_TOT=      2.7589813 <-- SPRD
 Delta: O_D= -0.2390490E-06 O_OD= -0.2538182E-06 O_TOT= -0.4928672E-06 <-- DLTA
 ------------------------------------------------------------------------------
 Cycle:     14
  WF centre and spread    1  (  2.097005,  0.000002, -0.000001 )     0.91950576
  WF centre and spread    2  ( -2.097005,  0.000001, -0.000001 )     0.91960609
  WF centre and spread    3  (  0.000001, -0.000003,  2.097004 )     0.91986786
  Sum of centres and spreads (  0.000000,  0.000001,  2.097002 )     2.75897971
 
     14    -0.494E-06     0.0002625452        2.7589807675       0.07  <-- CONV
        O_D=      0.0000005 O_OD=      0.0107598 O_TOT=      2.7589808 <-- SPRD
 Delta: O_D= -0.2851734E-06 O_OD= -0.2089260E-06 O_TOT= -0.4940994E-06 <-- DLTA
 ------------------------------------------------------------------------------
 Cycle:     15
  WF centre and spread    1  (  2.097003,  0.000002, -0.000001 )     0.91950603
  WF centre and spread    2  ( -2.097004,  0.000001, -0.000001 )     0.91960625
  WF centre and spread    3  (  0.000001, -0.000002,  2.097003 )     0.91986696
  Sum of centres and spreads (  0.000000,  0.000000,  2.097002 )     2.75897924
 
     15    -0.468E-06     0.0002724554        2.7589802998       0.08  <-- CONV
        O_D=      0.0000003 O_OD=      0.0107596 O_TOT=      2.7589803 <-- SPRD
 Delta: O_D= -0.2683060E-06 O_OD= -0.1993574E-06 O_TOT= -0.4676634E-06 <-- DLTA
 ------------------------------------------------------------------------------
 Cycle:     16
  WF centre and spread    1  (  2.097002,  0.000001, -0.000000 )     0.91950622
  WF centre and spread    2  ( -2.097003,  0.000001, -0.000000 )     0.91960635
  WF centre and spread    3  (  0.000000, -0.000001,  2.097002 )     0.91986639
  Sum of centres and spreads (  0.000000,  0.000000,  2.097002 )     2.75897896
 
     16    -0.283E-06     0.0002344813        2.7589800167       0.08  <-- CONV
        O_D=      0.0000001 O_OD=      0.0107595 O_TOT=      2.7589800 <-- SPRD
 Delta: O_D= -0.1495215E-06 O_OD= -0.1335951E-06 O_TOT= -0.2831166E-06 <-- DLTA
 ------------------------------------------------------------------------------
 Cycle:     17
  WF centre and spread    1  (  2.097002,  0.000000, -0.000000 )     0.91950632
  WF centre and spread    2  ( -2.097002,  0.000000, -0.000000 )     0.91960639
  WF centre and spread    3  (  0.000000, -0.000000,  2.097002 )     0.91986606
  Sum of centres and spreads (  0.000000,  0.000000,  2.097001 )     2.75897878
 
     17    -0.185E-06     0.0001831933        2.7589798314       0.08  <-- CONV
        O_D=      0.0000000 O_OD=      0.0107593 O_TOT=      2.7589798 <-- SPRD
 Delta: O_D= -0.7053173E-07 O_OD= -0.1147539E-06 O_TOT= -0.1852856E-06 <-- DLTA
 ------------------------------------------------------------------------------
 Cycle:     18
  WF centre and spread    1  (  2.097001, -0.000000, -0.000000 )     0.91950634
  WF centre and spread    2  ( -2.097001,  0.000000,  0.000000 )     0.91960640
  WF centre and spread    3  (  0.000000,  0.000000,  2.097001 )     0.91986592
  Sum of centres and spreads (  0.000000,  0.000000,  2.097001 )     2.75897867
 
     18    -0.108E-06     0.0001410785        2.7589797232       0.09  <-- CONV
        O_D=      0.0000000 O_OD=      0.0107593 O_TOT=      2.7589797 <-- SPRD
 Delta: O_D= -0.1891526E-07 O_OD= -0.8926624E-07 O_TOT= -0.1081815E-06 <-- DLTA
 ------------------------------------------------------------------------------
 Cycle:     19
  WF centre and spread    1  (  2.097001, -0.000000, -0.000000 )     0.91950631
  WF centre and spread    2  ( -2.097001,  0.000000,  0.000000 )     0.91960638
  WF centre and spread    3  (  0.000000,  0.000000,  2.097001 )     0.91986592
  Sum of centres and spreads (  0.000000,  0.000000,  2.097001 )     2.75897862
 
     19    -0.513E-07     0.0001269546        2.7589796719       0.09  <-- CONV
        O_D=      0.0000000 O_OD=      0.0107592 O_TOT=      2.7589797 <-- SPRD
 Delta: O_D= -0.1718336E-07 O_OD= -0.3414522E-07 O_TOT= -0.5132858E-07 <-- DLTA
 ------------------------------------------------------------------------------
 Cycle:     20
  WF centre and spread    1  (  2.097001, -0.000000, -0.000000 )     0.91950627
  WF centre and spread    2  ( -2.097001,  0.000000,  0.000000 )     0.91960635
  WF centre and spread    3  (  0.000000,  0.000000,  2.097001 )     0.91986595
  Sum of centres and spreads (  0.000000,  0.000000,  2.097001 )     2.75897857
 
     20    -0.486E-07     0.0000852631        2.7589796232       0.10  <-- CONV
        O_D=      0.0000000 O_OD=      0.0107592 O_TOT=      2.7589796 <-- SPRD
 Delta: O_D= -0.2820184E-08 O_OD= -0.4581842E-07 O_TOT= -0.4863860E-07 <-- DLTA
 ------------------------------------------------------------------------------
 Cycle:     21
  WF centre and spread    1  (  2.097001, -0.000000, -0.000000 )     0.91950619
  WF centre and spread    2  ( -2.097001,  0.000000,  0.000000 )     0.91960631
  WF centre and spread    3  (  0.000000,  0.000000,  2.097001 )     0.91986600
  Sum of centres and spreads (  0.000000,  0.000000,  2.097001 )     2.75897850
 
     21    -0.644E-07     0.0000888839        2.7589795588       0.10  <-- CONV
        O_D=      0.0000000 O_OD=      0.0107591 O_TOT=      2.7589796 <-- SPRD
 Delta: O_D=  0.1009752E-07 O_OD= -0.7452949E-07 O_TOT= -0.6443196E-07 <-- DLTA
 ------------------------------------------------------------------------------
 Cycle:     22
  WF centre and spread    1  (  2.097001, -0.000000, -0.000000 )     0.91950609
  WF centre and spread    2  ( -2.097001,  0.000000,  0.000000 )     0.91960625
  WF centre and spread    3  (  0.000000,  0.000000,  2.097001 )     0.91986605
  Sum of centres and spreads (  0.000000,  0.000000,  2.097001 )     2.75897839
 
     22    -0.110E-06     0.0001100925        2.7589794490       0.10  <-- CONV
        O_D=      0.0000000 O_OD=      0.0107590 O_TOT=      2.7589794 <-- SPRD
 Delta: O_D=  0.2699424E-07 O_OD= -0.1367752E-06 O_TOT= -0.1097809E-06 <-- DLTA
 ------------------------------------------------------------------------------
 Cycle:     23
  WF centre and spread    1  (  2.097001, -0.000000, -0.000000 )     0.91950596
  WF centre and spread    2  ( -2.097001,  0.000000,  0.000000 )     0.91960618
  WF centre and spread    3  (  0.000000,  0.000000,  2.097001 )     0.91986605
  Sum of centres and spreads (  0.000000,  0.000000,  2.097001 )     2.75897819
 
     23    -0.201E-06     0.0001454220        2.7589792478       0.11  <-- CONV
        O_D=      0.0000001 O_OD=      0.0107587 O_TOT=      2.7589792 <-- SPRD
 Delta: O_D=  0.6638584E-07 O_OD= -0.2675972E-06 O_TOT= -0.2012113E-06 <-- DLTA
 ------------------------------------------------------------------------------
 Cycle:     24
  WF centre and spread    1  (  2.097001, -0.000000, -0.000000 )     0.91950582
  WF centre and spread    2  ( -2.097001,  0.000000, -0.000000 )     0.91960609
  WF centre and spread    3  (  0.000000, -0.000000,  2.097001 )     0.91986589
  Sum of centres and spreads (  0.000000,  0.000000,  2.097001 )     2.75897780
 
     24    -0.390E-06     0.0001943692        2.7589788575       0.11  <-- CONV
        O_D=      0.0000003 O_OD=      0.0107581 O_TOT=      2.7589789 <-- SPRD
 Delta: O_D=  0.1639667E-06 O_OD= -0.5542769E-06 O_TOT= -0.3903102E-06 <-- DLTA
 ------------------------------------------------------------------------------
 Cycle:     25
  WF centre and spread    1  (  2.097001, -0.000000, -0.000000 )     0.91950573
  WF centre and spread    2  ( -2.097001,  0.000000, -0.000000 )     0.91960597
  WF centre and spread    3  (  0.000000, -0.000000,  2.097001 )     0.91986576
  Sum of centres and spreads (  0.000000,  0.000000,  2.097001 )     2.75897747
 
     25    -0.335E-06     0.0003450287        2.7589785227       0.11  <-- CONV
        O_D=      0.0000001 O_OD=      0.0107579 O_TOT=      2.7589785 <-- SPRD
 Delta: O_D= -0.1421550E-06 O_OD= -0.1926781E-06 O_TOT= -0.3348332E-06 <-- DLTA
 ------------------------------------------------------------------------------
 Cycle:     26
  WF centre and spread    1  (  2.097001, -0.000000, -0.000000 )     0.91950573
  WF centre and spread    2  ( -2.097001,  0.000000, -0.000000 )     0.91960591
  WF centre and spread    3  (  0.000000, -0.000000,  2.097001 )     0.91986563
  Sum of centres and spreads (  0.000000,  0.000000,  2.097001 )     2.75897727
 
     26    -0.198E-06     0.0001920197        2.7589783246       0.12  <-- CONV
        O_D=      0.0000001 O_OD=      0.0107578 O_TOT=      2.7589783 <-- SPRD
 Delta: O_D= -0.7152243E-07 O_OD= -0.1265973E-06 O_TOT= -0.1981197E-06 <-- DLTA
 ------------------------------------------------------------------------------
 Cycle:     27
  WF centre and spread    1  (  2.097001, -0.000000, -0.000000 )     0.91950575
  WF centre and spread    2  ( -2.097001,  0.000000,  0.000000 )     0.91960588
  WF centre and spread    3  (  0.000000, -0.000000,  2.097001 )     0.91986552
  Sum of centres and spreads (  0.000000,  0.000000,  2.097001 )     2.75897715
 
     27    -0.123E-06     0.0001485417        2.7589782019       0.12  <-- CONV
        O_D=      0.0000000 O_OD=      0.0107577 O_TOT=      2.7589782 <-- SPRD
 Delta: O_D= -0.3410078E-07 O_OD= -0.8854426E-07 O_TOT= -0.1226450E-06 <-- DLTA
 ------------------------------------------------------------------------------
 Cycle:     28
  WF centre and spread    1  (  2.097001, -0.000000, -0.000000 )     0.91950578
  WF centre and spread    2  ( -2.097001,  0.000000,  0.000000 )     0.91960586
  WF centre and spread    3  (  0.000000, -0.000000,  2.097001 )     0.91986544
  Sum of centres and spreads (  0.000000,  0.000000,  2.097001 )     2.75897708
 
     28    -0.694E-07     0.0001159694        2.7589781325       0.12  <-- CONV
        O_D=      0.0000000 O_OD=      0.0107577 O_TOT=      2.7589781 <-- SPRD
 Delta: O_D= -0.1441838E-07 O_OD= -0.5501562E-07 O_TOT= -0.6943400E-07 <-- DLTA
 ------------------------------------------------------------------------------
 Cycle:     29
  WF centre and spread    1  (  2.097001, -0.000000, -0.000000 )     0.91950580
  WF centre and spread    2  ( -2.097001,  0.000000,  0.000000 )     0.91960585
  WF centre and spread    3  (  0.000000, -0.000000,  2.097001 )     0.91986537
  Sum of centres and spreads (  0.000000,  0.000000,  2.097001 )     2.75897702
 
     29    -0.554E-07     0.0000933965        2.7589780771       0.12  <-- CONV
        O_D=      0.0000000 O_OD=      0.0107576 O_TOT=      2.7589781 <-- SPRD
 Delta: O_D= -0.2002750E-08 O_OD= -0.5339609E-07 O_TOT= -0.5539884E-07 <-- DLTA
 ------------------------------------------------------------------------------
 Cycle:     30
  WF centre and spread    1  (  2.097001, -0.000000, -0.000000 )     0.91950581
  WF centre and spread    2  ( -2.097001,  0.000000,  0.000000 )     0.91960585
  WF centre and spread    3  (  0.000000,  0.000000,  2.097001 )     0.91986530
  Sum of centres and spreads (  0.000000,  0.000000,  2.097001 )     2.75897697
 
     30    -0.551E-07     0.0000879488        2.7589780220       0.13  <-- CONV
        O_D=      0.0000000 O_OD=      0.0107576 O_TOT=      2.7589780 <-- SPRD
 Delta: O_D=  0.1378880E-07 O_OD= -0.6890178E-07 O_TOT= -0.5511298E-07 <-- DLTA
 ------------------------------------------------------------------------------
 Cycle:     31
  WF centre and spread    1  (  2.097001, -0.000000, -0.000000 )     0.91950579
  WF centre and spread    2  ( -2.097001,  0.000000,  0.000000 )     0.91960584
  WF centre and spread    3  (  0.000000,  0.000000,  2.097001 )     0.91986528
  Sum of centres and spreads (  0.000000,  0.000000,  2.097001 )     2.75897692
 
     31    -0.472E-07     0.0001206005        2.7589779748       0.13  <-- CONV
        O_D=      0.0000000 O_OD=      0.0107575 O_TOT=      2.7589780 <-- SPRD
 Delta: O_D= -0.1498172E-07 O_OD= -0.3222217E-07 O_TOT= -0.4720389E-07 <-- DLTA
 ------------------------------------------------------------------------------
 Cycle:     32
  WF centre and spread    1  (  2.097001, -0.000000, -0.000000 )     0.91950577
  WF centre and spread    2  ( -2.097001,  0.000000,  0.000000 )     0.91960584
  WF centre and spread    3  (  0.000000,  0.000000,  2.097001 )     0.91986526
  Sum of centres and spreads (  0.000000,  0.000000,  2.097001 )     2.75897687
 
     32    -0.505E-07     0.0000846324        2.7589779242       0.13  <-- CONV
        O_D=      0.0000000 O_OD=      0.0107575 O_TOT=      2.7589779 <-- SPRD
 Delta: O_D= -0.1564817E-08 O_OD= -0.4896009E-07 O_TOT= -0.5052491E-07 <-- DLTA
 ------------------------------------------------------------------------------
 Cycle:     33
  WF centre and spread    1  (  2.097001, -0.000000, -0.000000 )     0.91950573
  WF centre and spread    2  ( -2.097001,  0.000000,  0.000000 )     0.91960584
  WF centre and spread    3  (  0.000000,  0.000000,  2.097001 )     0.91986523
  Sum of centres and spreads (  0.000000,  0.000000,  2.097001 )     2.75897680
 
     33    -0.678E-07     0.0000902401        2.7589778564       0.14  <-- CONV
        O_D=      0.0000000 O_OD=      0.0107574 O_TOT=      2.7589779 <-- SPRD
 Delta: O_D=  0.9707197E-08 O_OD= -0.7751124E-07 O_TOT= -0.6780404E-07 <-- DLTA
 ------------------------------------------------------------------------------
 Cycle:     34
  WF centre and spread    1  (  2.097001, -0.000000, -0.000000 )     0.91950567
  WF centre and spread    2  ( -2.097001,  0.000000,  0.000000 )     0.91960583
  WF centre and spread    3  (  0.000000,  0.000000,  2.097001 )     0.91986518
  Sum of centres and spreads (  0.000000,  0.000000,  2.097001 )     2.75897669
 
     34    -0.111E-06     0.0001126449        2.7589777452       0.14  <-- CONV
        O_D=      0.0000000 O_OD=      0.0107573 O_TOT=      2.7589777 <-- SPRD
 Delta: O_D=  0.2546975E-07 O_OD= -0.1367017E-06 O_TOT= -0.1112320E-06 <-- DLTA
 ------------------------------------------------------------------------------
 Cycle:     35
  WF centre and spread    1  (  2.097001, -0.000000, -0.000000 )     0.91950561
  WF centre and spread    2  ( -2.097001,  0.000000,  0.000000 )     0.91960581
  WF centre and spread    3  (  0.000000,  0.000000,  2.097001 )     0.91986508
  Sum of centres and spreads (  0.000000,  0.000000,  2.097001 )     2.75897649
 
     35    -0.195E-06     0.0001412831        2.7589775501       0.14  <-- CONV
        O_D=      0.0000001 O_OD=      0.0107570 O_TOT=      2.7589776 <-- SPRD
 Delta: O_D=  0.6588284E-07 O_OD= -0.2609685E-06 O_TOT= -0.1950857E-06 <-- DLTA
 ------------------------------------------------------------------------------
 Cycle:     36
  WF centre and spread    1  (  2.097001, -0.000000, -0.000000 )     0.91950553
  WF centre and spread    2  ( -2.097001,  0.000000,  0.000000 )     0.91960574
  WF centre and spread    3  (  0.000000,  0.000000,  2.097001 )     0.91986489
  Sum of centres and spreads (  0.000000,  0.000000,  2.097001 )     2.75897615
 
     36    -0.342E-06     0.0001907609        2.7589772078       0.15  <-- CONV
        O_D=      0.0000003 O_OD=      0.0107565 O_TOT=      2.7589772 <-- SPRD
 Delta: O_D=  0.1514781E-06 O_OD= -0.4937668E-06 O_TOT= -0.3422888E-06 <-- DLTA
 ------------------------------------------------------------------------------
 Cycle:     37
  WF centre and spread    1  (  2.097001, -0.000000, -0.000000 )     0.91950543
  WF centre and spread    2  ( -2.097001,  0.000000,  0.000000 )     0.91960561
  WF centre and spread    3  (  0.000000,  0.000000,  2.097001 )     0.91986480
  Sum of centres and spreads (  0.000000,  0.000000,  2.097001 )     2.75897584
 
     37    -0.316E-06     0.0003348529        2.7589768919       0.15  <-- CONV
        O_D=      0.0000001 O_OD=      0.0107563 O_TOT=      2.7589769 <-- SPRD
 Delta: O_D= -0.1371563E-06 O_OD= -0.1787565E-06 O_TOT= -0.3159128E-06 <-- DLTA
 ------------------------------------------------------------------------------
 Cycle:     38
  WF centre and spread    1  (  2.097001, -0.000000, -0.000000 )     0.91950539
  WF centre and spread    2  ( -2.097001,  0.000000,  0.000000 )     0.91960552
  WF centre and spread    3  (  0.000000,  0.000000,  2.097001 )     0.91986474
  Sum of centres and spreads (  0.000000,  0.000000,  2.097001 )     2.75897564
 
     38    -0.192E-06     0.0001893374        2.7589767003       0.15  <-- CONV
        O_D=      0.0000001 O_OD=      0.0107562 O_TOT=      2.7589767 <-- SPRD
 Delta: O_D= -0.6900266E-07 O_OD= -0.1226196E-06 O_TOT= -0.1916222E-06 <-- DLTA
 ------------------------------------------------------------------------------
 Cycle:     39
  WF centre and spread    1  (  2.097001, -0.000000, -0.000000 )     0.91950538
  WF centre and spread    2  ( -2.097001,  0.000000,  0.000000 )     0.91960545
  WF centre and spread    3  (  0.000000,  0.000000,  2.097001 )     0.91986470
  Sum of centres and spreads (  0.000000,  0.000000,  2.097001 )     2.75897553
 
     39    -0.116E-06     0.0001432910        2.7589765847       0.15  <-- CONV
        O_D=      0.0000000 O_OD=      0.0107561 O_TOT=      2.7589766 <-- SPRD
 Delta: O_D= -0.3120144E-07 O_OD= -0.8438199E-07 O_TOT= -0.1155834E-06 <-- DLTA
 ------------------------------------------------------------------------------
 Cycle:     40
  WF centre and spread    1  (  2.097001, -0.000000, -0.000000 )     0.91950538
  WF centre and spread    2  ( -2.097001,  0.000000,  0.000000 )     0.91960541
  WF centre and spread    3  (  0.000000,  0.000000,  2.097001 )     0.91986467
  Sum of centres and spreads (  0.000000,  0.000000,  2.097001 )     2.75897546
 
     40    -0.701E-07     0.0001156379        2.7589765146       0.16  <-- CONV
        O_D=      0.0000000 O_OD=      0.0107561 O_TOT=      2.7589765 <-- SPRD
 Delta: O_D= -0.1278095E-07 O_OD= -0.5733027E-07 O_TOT= -0.7011121E-07 <-- DLTA
 ------------------------------------------------------------------------------
 Cycle:     41
  WF centre and spread    1  (  2.097001, -0.000000, -0.000000 )     0.91950537
  WF centre and spread    2  ( -2.097001,  0.000000,  0.000000 )     0.91960539
  WF centre and spread    3  (  0.000000,  0.000000,  2.097001 )     0.91986464
  Sum of centres and spreads (  0.000000,  0.000000,  2.097001 )     2.75897540
 
     41    -0.547E-07     0.0000947112        2.7589764599       0.16  <-- CONV
        O_D=      0.0000000 O_OD=      0.0107560 O_TOT=      2.7589765 <-- SPRD
 Delta: O_D= -0.1139212E-08 O_OD= -0.5359569E-07 O_TOT= -0.5473490E-07 <-- DLTA
 ------------------------------------------------------------------------------
 Cycle:     42
  WF centre and spread    1  (  2.097001, -0.000000, -0.000000 )     0.91950537
  WF centre and spread    2  ( -2.097001,  0.000000,  0.000000 )     0.91960538
  WF centre and spread    3  (  0.000000,  0.000000,  2.097001 )     0.91986461
  Sum of centres and spreads (  0.000000,  0.000000,  2.097001 )     2.75897535
 
     42    -0.497E-07     0.0000852699        2.7589764101       0.16  <-- CONV
        O_D=      0.0000000 O_OD=      0.0107559 O_TOT=      2.7589764 <-- SPRD
 Delta: O_D=  0.1457216E-07 O_OD= -0.6431796E-07 O_TOT= -0.4974579E-07 <-- DLTA
 ------------------------------------------------------------------------------
 Cycle:     43
  WF centre and spread    1  (  2.097001, -0.000000, -0.000000 )     0.91950535
  WF centre and spread    2  ( -2.097001,  0.000000,  0.000000 )     0.91960537
  WF centre and spread    3  (  0.000000,  0.000000,  2.097001 )     0.91986458
  Sum of centres and spreads (  0.000000,  0.000000,  2.097001 )     2.75897531
 
     43    -0.457E-07     0.0001188243        2.7589763644       0.17  <-- CONV
        O_D=      0.0000000 O_OD=      0.0107559 O_TOT=      2.7589764 <-- SPRD
 Delta: O_D= -0.1429502E-07 O_OD= -0.3137685E-07 O_TOT= -0.4567188E-07 <-- DLTA
 ------------------------------------------------------------------------------
 Cycle:     44
  WF centre and spread    1  (  2.097001, -0.000000, -0.000000 )     0.91950533
  WF centre and spread    2  ( -2.097001,  0.000000,  0.000000 )     0.91960538
  WF centre and spread    3  (  0.000000,  0.000000,  2.097001 )     0.91986455
  Sum of centres and spreads (  0.000000,  0.000000,  2.097001 )     2.75897526
 
     44    -0.511E-07     0.0000827841        2.7589763134       0.17  <-- CONV
        O_D=      0.0000000 O_OD=      0.0107559 O_TOT=      2.7589763 <-- SPRD
 Delta: O_D= -0.9529079E-09 O_OD= -0.5013946E-07 O_TOT= -0.5109237E-07 <-- DLTA
 ------------------------------------------------------------------------------
 Cycle:     45
  WF centre and spread    1  (  2.097001, -0.000000, -0.000000 )     0.91950530
  WF centre and spread    2  ( -2.097001,  0.000000,  0.000000 )     0.91960538
  WF centre and spread    3  (  0.000000,  0.000000,  2.097001 )     0.91986451
  Sum of centres and spreads (  0.000000,  0.000000,  2.097001 )     2.75897519
 
     45    -0.694E-07     0.0000915606        2.7589762439       0.17  <-- CONV
        O_D=      0.0000000 O_OD=      0.0107558 O_TOT=      2.7589762 <-- SPRD
 Delta: O_D=  0.9858938E-08 O_OD= -0.7929249E-07 O_TOT= -0.6943355E-07 <-- DLTA
 ------------------------------------------------------------------------------
 Cycle:     46
  WF centre and spread    1  (  2.097001, -0.000000, -0.000000 )     0.91950524
  WF centre and spread    2  ( -2.097001,  0.000000,  0.000000 )     0.91960538
  WF centre and spread    3  (  0.000000,  0.000000,  2.097001 )     0.91986445
  Sum of centres and spreads (  0.000000,  0.000000,  2.097001 )     2.75897508
 
     46    -0.112E-06     0.0001147682        2.7589761324       0.17  <-- CONV
        O_D=      0.0000001 O_OD=      0.0107556 O_TOT=      2.7589761 <-- SPRD
 Delta: O_D=  0.2830958E-07 O_OD= -0.1398746E-06 O_TOT= -0.1115650E-06 <-- DLTA
 ------------------------------------------------------------------------------
 Cycle:     47
  WF centre and spread    1  (  2.097001, -0.000000, -0.000000 )     0.91950517
  WF centre and spread    2  ( -2.097001,  0.000000,  0.000000 )     0.91960535
  WF centre and spread    3  (  0.000000,  0.000000,  2.097001 )     0.91986436
  Sum of centres and spreads (  0.000000,  0.000000,  2.097001 )     2.75897488
 
     47    -0.198E-06     0.0001434756        2.7589759348       0.18  <-- CONV
        O_D=      0.0000001 O_OD=      0.0107554 O_TOT=      2.7589759 <-- SPRD
 Delta: O_D=  0.7137774E-07 O_OD= -0.2689238E-06 O_TOT= -0.1975460E-06 <-- DLTA
 ------------------------------------------------------------------------------
 Cycle:     48
  WF centre and spread    1  (  2.097001, -0.000000, -0.000000 )     0.91950506
  WF centre and spread    2  ( -2.097001,  0.000000,  0.000000 )     0.91960526
  WF centre and spread    3  (  0.000000,  0.000000,  2.097001 )     0.91986423
  Sum of centres and spreads (  0.000000,  0.000000,  2.097001 )     2.75897455
 
     48    -0.325E-06     0.0001913469        2.7589756094       0.18  <-- CONV
        O_D=      0.0000003 O_OD=      0.0107549 O_TOT=      2.7589756 <-- SPRD
 Delta: O_D=  0.1506342E-06 O_OD= -0.4760138E-06 O_TOT= -0.3253796E-06 <-- DLTA
 ------------------------------------------------------------------------------
 Cycle:     49
  WF centre and spread    1  (  2.097001, -0.000000, -0.000000 )     0.91950497
  WF centre and spread    2  ( -2.097001,  0.000000,  0.000000 )     0.91960513
  WF centre and spread    3  (  0.000000,  0.000000,  2.097001 )     0.91986414
  Sum of centres and spreads (  0.000000,  0.000000,  2.097001 )     2.75897424
 
     49    -0.310E-06     0.0003278205        2.7589752999       0.18  <-- CONV
        O_D=      0.0000001 O_OD=      0.0107547 O_TOT=      2.7589753 <-- SPRD
 Delta: O_D= -0.1363226E-06 O_OD= -0.1731808E-06 O_TOT= -0.3095034E-06 <-- DLTA
 ------------------------------------------------------------------------------
 Cycle:     50
  WF centre and spread    1  (  2.097001, -0.000000, -0.000000 )     0.91950493
  WF centre and spread    2  ( -2.097001,  0.000000,  0.000000 )     0.91960503
  WF centre and spread    3  (  0.000000,  0.000000,  2.097001 )     0.91986409
  Sum of centres and spreads (  0.000000,  0.000000,  2.097001 )     2.75897405
 
     50    -0.199E-06     0.0001913341        2.7589751010       0.18  <-- CONV
        O_D=      0.0000001 O_OD=      0.0107546 O_TOT=      2.7589751 <-- SPRD
 Delta: O_D= -0.7289237E-07 O_OD= -0.1260734E-06 O_TOT= -0.1989658E-06 <-- DLTA
 ------------------------------------------------------------------------------
 Cycle:     51
  WF centre and spread    1  (  2.097001, -0.000000, -0.000000 )     0.91950491
  WF centre and spread    2  ( -2.097001,  0.000000,  0.000000 )     0.91960497
  WF centre and spread    3  (  0.000000,  0.000000,  2.097001 )     0.91986405
  Sum of centres and spreads (  0.000000,  0.000000,  2.097001 )     2.75897393
 
     51    -0.119E-06     0.0001453846        2.7589749820       0.19  <-- CONV
        O_D=      0.0000000 O_OD=      0.0107545 O_TOT=      2.7589750 <-- SPRD
 Delta: O_D= -0.3493119E-07 O_OD= -0.8405990E-07 O_TOT= -0.1189911E-06 <-- DLTA
 ------------------------------------------------------------------------------
 Cycle:     52
  WF centre and spread    1  (  2.097001, -0.000000, -0.000000 )     0.91950492
  WF centre and spread    2  ( -2.097001,  0.000000,  0.000000 )     0.91960493
  WF centre and spread    3  (  0.000000,  0.000000,  2.097001 )     0.91986401
  Sum of centres and spreads (  0.000000,  0.000000,  2.097001 )     2.75897385
 
     52    -0.723E-07     0.0001174826        2.7589749096       0.19  <-- CONV
        O_D=      0.0000000 O_OD=      0.0107545 O_TOT=      2.7589749 <-- SPRD
 Delta: O_D= -0.1429767E-07 O_OD= -0.5803734E-07 O_TOT= -0.7233501E-07 <-- DLTA
 ------------------------------------------------------------------------------
 Cycle:     53
  WF centre and spread    1  (  2.097001, -0.000000, -0.000000 )     0.91950492
  WF centre and spread    2  ( -2.097001,  0.000000,  0.000000 )     0.91960491
  WF centre and spread    3  (  0.000000,  0.000000,  2.097001 )     0.91986397
  Sum of centres and spreads (  0.000000,  0.000000,  2.097001 )     2.75897380
 
     53    -0.544E-07     0.0000942722        2.7589748552       0.19  <-- CONV
        O_D=      0.0000000 O_OD=      0.0107544 O_TOT=      2.7589749 <-- SPRD
 Delta: O_D= -0.8222362E-09 O_OD= -0.5362275E-07 O_TOT= -0.5444498E-07 <-- DLTA
 ------------------------------------------------------------------------------
 Cycle:     54
  WF centre and spread    1  (  2.097001, -0.000000, -0.000000 )     0.91950493
  WF centre and spread    2  ( -2.097001,  0.000000,  0.000000 )     0.91960491
  WF centre and spread    3  (  0.000000,  0.000000,  2.097001 )     0.91986391
  Sum of centres and spreads (  0.000000,  0.000000,  2.097001 )     2.75897375
 
     54    -0.478E-07     0.0000859345        2.7589748074       0.19  <-- CONV
        O_D=      0.0000000 O_OD=      0.0107543 O_TOT=      2.7589748 <-- SPRD
 Delta: O_D=  0.1557777E-07 O_OD= -0.6333026E-07 O_TOT= -0.4775249E-07 <-- DLTA
 ------------------------------------------------------------------------------
 Cycle:     55
  WF centre and spread    1  (  2.097001, -0.000000, -0.000000 )     0.91950491
  WF centre and spread    2  ( -2.097001,  0.000000,  0.000000 )     0.91960491
  WF centre and spread    3  (  0.000000,  0.000000,  2.097001 )     0.91986389
  Sum of centres and spreads (  0.000000,  0.000000,  2.097001 )     2.75897371
 
     55    -0.460E-07     0.0001192708        2.7589747614       0.20  <-- CONV
        O_D=      0.0000000 O_OD=      0.0107543 O_TOT=      2.7589748 <-- SPRD
 Delta: O_D= -0.1481573E-07 O_OD= -0.3118124E-07 O_TOT= -0.4599697E-07 <-- DLTA
 ------------------------------------------------------------------------------
 Cycle:     56
  WF centre and spread    1  (  2.097001, -0.000000, -0.000000 )     0.91950489
  WF centre and spread    2  ( -2.097001,  0.000000,  0.000000 )     0.91960491
  WF centre and spread    3  (  0.000000,  0.000000,  2.097001 )     0.91986385
  Sum of centres and spreads (  0.000000,  0.000000,  2.097001 )     2.75897366
 
     56    -0.507E-07     0.0000834738        2.7589747107       0.20  <-- CONV
        O_D=      0.0000000 O_OD=      0.0107543 O_TOT=      2.7589747 <-- SPRD
 Delta: O_D= -0.1470355E-08 O_OD= -0.4922452E-07 O_TOT= -0.5069488E-07 <-- DLTA
 ------------------------------------------------------------------------------
 Cycle:     57
  WF centre and spread    1  (  2.097001, -0.000000, -0.000000 )     0.91950486
  WF centre and spread    2  ( -2.097001,  0.000000,  0.000000 )     0.91960492
  WF centre and spread    3  (  0.000000,  0.000000,  2.097001 )     0.91986381
  Sum of centres and spreads (  0.000000,  0.000000,  2.097001 )     2.75897359
 
     57    -0.689E-07     0.0000903890        2.7589746418       0.20  <-- CONV
        O_D=      0.0000000 O_OD=      0.0107542 O_TOT=      2.7589746 <-- SPRD
 Delta: O_D=  0.1069577E-07 O_OD= -0.7961937E-07 O_TOT= -0.6892360E-07 <-- DLTA
 ------------------------------------------------------------------------------
 Cycle:     58
  WF centre and spread    1  (  2.097001, -0.000000, -0.000000 )     0.91950481
  WF centre and spread    2  ( -2.097001,  0.000000,  0.000000 )     0.91960492
  WF centre and spread    3  (  0.000000,  0.000000,  2.097001 )     0.91986375
  Sum of centres and spreads (  0.000000,  0.000000,  2.097001 )     2.75897347
 
     58    -0.114E-06     0.0001189231        2.7589745280       0.20  <-- CONV
        O_D=      0.0000001 O_OD=      0.0107540 O_TOT=      2.7589745 <-- SPRD
 Delta: O_D=  0.3056946E-07 O_OD= -0.1444195E-06 O_TOT= -0.1138501E-06 <-- DLTA
 ------------------------------------------------------------------------------
 Cycle:     59
  WF centre and spread    1  (  2.097001, -0.000000, -0.000000 )     0.91950473
  WF centre and spread    2  ( -2.097001,  0.000000,  0.000000 )     0.91960488
  WF centre and spread    3  (  0.000000,  0.000000,  2.097001 )     0.91986366
  Sum of centres and spreads (  0.000000,  0.000000,  2.097001 )     2.75897328
 
     59    -0.197E-06     0.0001443232        2.7589743314       0.21  <-- CONV
        O_D=      0.0000001 O_OD=      0.0107538 O_TOT=      2.7589743 <-- SPRD
 Delta: O_D=  0.7038212E-07 O_OD= -0.2669296E-06 O_TOT= -0.1965475E-06 <-- DLTA
 ------------------------------------------------------------------------------
 Cycle:     60
  WF centre and spread    1  (  2.097001, -0.000000, -0.000000 )     0.91950463
  WF centre and spread    2  ( -2.097001,  0.000000,  0.000000 )     0.91960479
  WF centre and spread    3  (  0.000000,  0.000000,  2.097001 )     0.91986356
  Sum of centres and spreads (  0.000000,  0.000000,  2.097001 )     2.75897297
 
     60    -0.303E-06     0.0001903943        2.7589740280       0.21  <-- CONV
        O_D=      0.0000003 O_OD=      0.0107533 O_TOT=      2.7589740 <-- SPRD
 Delta: O_D=  0.1446576E-06 O_OD= -0.4480981E-06 O_TOT= -0.3034405E-06 <-- DLTA
 ------------------------------------------------------------------------------
 Cycle:     61
  WF centre and spread    1  (  2.097001, -0.000000, -0.000000 )     0.91950454
  WF centre and spread    2  ( -2.097001,  0.000000,  0.000000 )     0.91960467
  WF centre and spread    3  (  0.000000,  0.000000,  2.097001 )     0.91986347
  Sum of centres and spreads (  0.000000,  0.000000,  2.097001 )     2.75897268
 
     61    -0.294E-06     0.0003136518        2.7589737342       0.21  <-- CONV
        O_D=      0.0000001 O_OD=      0.0107532 O_TOT=      2.7589737 <-- SPRD
 Delta: O_D= -0.1306630E-06 O_OD= -0.1631486E-06 O_TOT= -0.2938117E-06 <-- DLTA
 ------------------------------------------------------------------------------
 Cycle:     62
  WF centre and spread    1  (  2.097001, -0.000000, -0.000000 )     0.91950450
  WF centre and spread    2  ( -2.097001,  0.000000,  0.000000 )     0.91960457
  WF centre and spread    3  (  0.000000,  0.000000,  2.097001 )     0.91986341
  Sum of centres and spreads (  0.000000,  0.000000,  2.097001 )     2.75897248
 
     62    -0.194E-06     0.0001887184        2.7589735397       0.21  <-- CONV
        O_D=      0.0000001 O_OD=      0.0107530 O_TOT=      2.7589735 <-- SPRD
 Delta: O_D= -0.7220018E-07 O_OD= -0.1222535E-06 O_TOT= -0.1944536E-06 <-- DLTA
 ------------------------------------------------------------------------------
 Cycle:     63
  WF centre and spread    1  (  2.097001, -0.000000, -0.000000 )     0.91950449
  WF centre and spread    2  ( -2.097001,  0.000000,  0.000000 )     0.91960451
  WF centre and spread    3  (  0.000000,  0.000000,  2.097001 )     0.91986337
  Sum of centres and spreads (  0.000000,  0.000000,  2.097001 )     2.75897237
 
     63    -0.119E-06     0.0001447813        2.7589734209       0.21  <-- CONV
        O_D=      0.0000000 O_OD=      0.0107530 O_TOT=      2.7589734 <-- SPRD
 Delta: O_D= -0.3690758E-07 O_OD= -0.8192870E-07 O_TOT= -0.1188363E-06 <-- DLTA
 ------------------------------------------------------------------------------
 Cycle:     64
  WF centre and spread    1  (  2.097001, -0.000000, -0.000000 )     0.91950449
  WF centre and spread    2  ( -2.097001,  0.000000,  0.000000 )     0.91960447
  WF centre and spread    3  (  0.000000,  0.000000,  2.097001 )     0.91986333
  Sum of centres and spreads (  0.000000,  0.000000,  2.097001 )     2.75897229
 
     64    -0.728E-07     0.0001193695        2.7589733480       0.22  <-- CONV
        O_D=      0.0000000 O_OD=      0.0107529 O_TOT=      2.7589733 <-- SPRD
 Delta: O_D= -0.1459780E-07 O_OD= -0.5823780E-07 O_TOT= -0.7283559E-07 <-- DLTA
 ------------------------------------------------------------------------------
 Cycle:     65
  WF centre and spread    1  (  2.097001, -0.000000, -0.000000 )     0.91950449
  WF centre and spread    2  ( -2.097001,  0.000000,  0.000000 )     0.91960446
  WF centre and spread    3  (  0.000000,  0.000000,  2.097001 )     0.91986328
  Sum of centres and spreads (  0.000000,  0.000000,  2.097001 )     2.75897224
 
     65    -0.553E-07     0.0000945305        2.7589732928       0.22  <-- CONV
        O_D=      0.0000000 O_OD=      0.0107528 O_TOT=      2.7589733 <-- SPRD
 Delta: O_D= -0.7111072E-09 O_OD= -0.5455506E-07 O_TOT= -0.5526617E-07 <-- DLTA
 ------------------------------------------------------------------------------
 Cycle:     66
  WF centre and spread    1  (  2.097001, -0.000000, -0.000000 )     0.91950450
  WF centre and spread    2  ( -2.097001,  0.000000,  0.000000 )     0.91960447
  WF centre and spread    3  (  0.000000,  0.000000,  2.097001 )     0.91986322
  Sum of centres and spreads (  0.000000,  0.000000,  2.097001 )     2.75897219
 
     66    -0.474E-07     0.0000851797        2.7589732454       0.22  <-- CONV
        O_D=      0.0000000 O_OD=      0.0107528 O_TOT=      2.7589732 <-- SPRD
 Delta: O_D=  0.1556856E-07 O_OD= -0.6292920E-07 O_TOT= -0.4736064E-07 <-- DLTA
 ------------------------------------------------------------------------------
 Cycle:     67
  WF centre and spread    1  (  2.097001, -0.000000, -0.000000 )     0.91950448
  WF centre and spread    2  ( -2.097001,  0.000000,  0.000000 )     0.91960446
  WF centre and spread    3  (  0.000000,  0.000000,  2.097001 )     0.91986320
  Sum of centres and spreads (  0.000000,  0.000000,  2.097001 )     2.75897215
 
     67    -0.449E-07     0.0001184990        2.7589732006       0.22  <-- CONV
        O_D=      0.0000000 O_OD=      0.0107527 O_TOT=      2.7589732 <-- SPRD
 Delta: O_D= -0.1482481E-07 O_OD= -0.3003893E-07 O_TOT= -0.4486375E-07 <-- DLTA
 ------------------------------------------------------------------------------
 Cycle:     68
  WF centre and spread    1  (  2.097001, -0.000000, -0.000000 )     0.91950446
  WF centre and spread    2  ( -2.097001,  0.000000,  0.000000 )     0.91960446
  WF centre and spread    3  (  0.000000,  0.000000,  2.097001 )     0.91986317
  Sum of centres and spreads (  0.000000,  0.000000,  2.097001 )     2.75897209
 
     68    -0.508E-07     0.0000821722        2.7589731497       0.23  <-- CONV
        O_D=      0.0000000 O_OD=      0.0107527 O_TOT=      2.7589731 <-- SPRD
 Delta: O_D= -0.1618120E-08 O_OD= -0.4920173E-07 O_TOT= -0.5081985E-07 <-- DLTA
 ------------------------------------------------------------------------------
 Cycle:     69
  WF centre and spread    1  (  2.097001, -0.000000, -0.000000 )     0.91950443
  WF centre and spread    2  ( -2.097001,  0.000000,  0.000000 )     0.91960447
  WF centre and spread    3  (  0.000000,  0.000000,  2.097001 )     0.91986313
  Sum of centres and spreads (  0.000000,  0.000000,  2.097001 )     2.75897202
 
     69    -0.694E-07     0.0000902798        2.7589730803       0.23  <-- CONV
        O_D=      0.0000000 O_OD=      0.0107526 O_TOT=      2.7589731 <-- SPRD
 Delta: O_D=  0.8614435E-08 O_OD= -0.7804237E-07 O_TOT= -0.6942793E-07 <-- DLTA
 ------------------------------------------------------------------------------
 Cycle:     70
  WF centre and spread    1  (  2.097001, -0.000000, -0.000000 )     0.91950437
  WF centre and spread    2  ( -2.097001,  0.000000,  0.000000 )     0.91960446
  WF centre and spread    3  (  0.000000,  0.000000,  2.097001 )     0.91986308
  Sum of centres and spreads (  0.000000,  0.000000,  2.097001 )     2.75897191
 
     70    -0.117E-06     0.0001134265        2.7589729632       0.23  <-- CONV
        O_D=      0.0000001 O_OD=      0.0107525 O_TOT=      2.7589730 <-- SPRD
 Delta: O_D=  0.3280225E-07 O_OD= -0.1499294E-06 O_TOT= -0.1171271E-06 <-- DLTA
 ------------------------------------------------------------------------------
 Cycle:     71
  WF centre and spread    1  (  2.097001, -0.000000, -0.000000 )     0.91950429
  WF centre and spread    2  ( -2.097001,  0.000000,  0.000000 )     0.91960442
  WF centre and spread    3  (  0.000000,  0.000000,  2.097001 )     0.91986300
  Sum of centres and spreads (  0.000000,  0.000000,  2.097001 )     2.75897171
 
     71    -0.198E-06     0.0001495319        2.7589727648       0.23  <-- CONV
        O_D=      0.0000001 O_OD=      0.0107522 O_TOT=      2.7589728 <-- SPRD
 Delta: O_D=  0.7964387E-07 O_OD= -0.2780265E-06 O_TOT= -0.1983826E-06 <-- DLTA
 ------------------------------------------------------------------------------
 Cycle:     72
  WF centre and spread    1  (  2.097001, -0.000000, -0.000000 )     0.91950419
  WF centre and spread    2  ( -2.097001,  0.000000,  0.000000 )     0.91960432
  WF centre and spread    3  (  0.000000,  0.000000,  2.097001 )     0.91986291
  Sum of centres and spreads (  0.000000,  0.000000,  2.097001 )     2.75897141
 
     72    -0.296E-06     0.0001886175        2.7589724690       0.23  <-- CONV
        O_D=      0.0000003 O_OD=      0.0107518 O_TOT=      2.7589725 <-- SPRD
 Delta: O_D=  0.1442857E-06 O_OD= -0.4401126E-06 O_TOT= -0.2958269E-06 <-- DLTA
 ------------------------------------------------------------------------------
 Cycle:     73
  WF centre and spread    1  (  2.097001, -0.000000, -0.000000 )     0.91950410
  WF centre and spread    2  ( -2.097001,  0.000000,  0.000000 )     0.91960421
  WF centre and spread    3  (  0.000000,  0.000000,  2.097001 )     0.91986282
  Sum of centres and spreads (  0.000000,  0.000000,  2.097001 )     2.75897113
 
     73    -0.283E-06     0.0003044744        2.7589721855       0.24  <-- CONV
        O_D=      0.0000002 O_OD=      0.0107516 O_TOT=      2.7589722 <-- SPRD
 Delta: O_D= -0.1271269E-06 O_OD= -0.1563284E-06 O_TOT= -0.2834553E-06 <-- DLTA
 ------------------------------------------------------------------------------
 Cycle:     74
  WF centre and spread    1  (  2.097001, -0.000000, -0.000000 )     0.91950406
  WF centre and spread    2  ( -2.097001,  0.000000,  0.000000 )     0.91960411
  WF centre and spread    3  (  0.000000,  0.000000,  2.097001 )     0.91986275
  Sum of centres and spreads (  0.000000,  0.000000,  2.097001 )     2.75897093
 
     74    -0.203E-06     0.0001887991        2.7589719821       0.24  <-- CONV
        O_D=      0.0000001 O_OD=      0.0107515 O_TOT=      2.7589720 <-- SPRD
 Delta: O_D= -0.7671175E-07 O_OD= -0.1266564E-06 O_TOT= -0.2033681E-06 <-- DLTA
 ------------------------------------------------------------------------------
 Cycle:     75
  WF centre and spread    1  (  2.097001, -0.000000, -0.000000 )     0.91950405
  WF centre and spread    2  ( -2.097001,  0.000000,  0.000000 )     0.91960405
  WF centre and spread    3  (  0.000000,  0.000000,  2.097001 )     0.91986270
  Sum of centres and spreads (  0.000000,  0.000000,  2.097001 )     2.75897080
 
     75    -0.127E-06     0.0001525307        2.7589718549       0.24  <-- CONV
        O_D=      0.0000000 O_OD=      0.0107514 O_TOT=      2.7589719 <-- SPRD
 Delta: O_D= -0.4417853E-07 O_OD= -0.8305069E-07 O_TOT= -0.1272292E-06 <-- DLTA
 ------------------------------------------------------------------------------
 Cycle:     76
  WF centre and spread    1  (  2.097001, -0.000000, -0.000000 )     0.91950406
  WF centre and spread    2  ( -2.097001,  0.000000,  0.000000 )     0.91960402
  WF centre and spread    3  (  0.000000,  0.000000,  2.097001 )     0.91986265
  Sum of centres and spreads (  0.000000,  0.000000,  2.097001 )     2.75897073
 
     76    -0.727E-07     0.0001192885        2.7589717822       0.24  <-- CONV
        O_D=      0.0000000 O_OD=      0.0107513 O_TOT=      2.7589718 <-- SPRD
 Delta: O_D= -0.1626565E-07 O_OD= -0.5642100E-07 O_TOT= -0.7268665E-07 <-- DLTA
 ------------------------------------------------------------------------------
 Cycle:     77
  WF centre and spread    1  (  2.097001, -0.000000, -0.000000 )     0.91950406
  WF centre and spread    2  ( -2.097001,  0.000000,  0.000000 )     0.91960401
  WF centre and spread    3  (  0.000000,  0.000000,  2.097001 )     0.91986260
  Sum of centres and spreads (  0.000000,  0.000000,  2.097001 )     2.75897067
 
     77    -0.542E-07     0.0000934089        2.7589717280       0.25  <-- CONV
        O_D=      0.0000000 O_OD=      0.0107513 O_TOT=      2.7589717 <-- SPRD
 Delta: O_D= -0.1948392E-09 O_OD= -0.5403052E-07 O_TOT= -0.5422536E-07 <-- DLTA
 ------------------------------------------------------------------------------
 Cycle:     78
  WF centre and spread    1  (  2.097001, -0.000000, -0.000000 )     0.91950407
  WF centre and spread    2  ( -2.097001,  0.000000,  0.000000 )     0.91960402
  WF centre and spread    3  (  0.000000,  0.000000,  2.097001 )     0.91986254
  Sum of centres and spreads (  0.000000,  0.000000,  2.097001 )     2.75897063
 
     78    -0.474E-07     0.0000843380        2.7589716806       0.25  <-- CONV
        O_D=      0.0000000 O_OD=      0.0107512 O_TOT=      2.7589717 <-- SPRD
 Delta: O_D=  0.1543171E-07 O_OD= -0.6281941E-07 O_TOT= -0.4738771E-07 <-- DLTA
 ------------------------------------------------------------------------------
 Cycle:     79
  WF centre and spread    1  (  2.097001, -0.000000, -0.000000 )     0.91950405
  WF centre and spread    2  ( -2.097001,  0.000000,  0.000000 )     0.91960401
  WF centre and spread    3  (  0.000000,  0.000000,  2.097001 )     0.91986252
  Sum of centres and spreads (  0.000000,  0.000000,  2.097001 )     2.75897058
 
     79    -0.434E-07     0.0001164583        2.7589716372       0.25  <-- CONV
        O_D=      0.0000000 O_OD=      0.0107512 O_TOT=      2.7589716 <-- SPRD
 Delta: O_D= -0.1466609E-07 O_OD= -0.2873010E-07 O_TOT= -0.4339619E-07 <-- DLTA
 ------------------------------------------------------------------------------
 Cycle:     80
  WF centre and spread    1  (  2.097001, -0.000000, -0.000000 )     0.91950403
  WF centre and spread    2  ( -2.097001,  0.000000,  0.000000 )     0.91960401
  WF centre and spread    3  (  0.000000,  0.000000,  2.097001 )     0.91986249
  Sum of centres and spreads (  0.000000,  0.000000,  2.097001 )     2.75897053
 
     80    -0.494E-07     0.0000819765        2.7589715878       0.25  <-- CONV
        O_D=      0.0000000 O_OD=      0.0107511 O_TOT=      2.7589716 <-- SPRD
 Delta: O_D= -0.1347993E-08 O_OD= -0.4807340E-07 O_TOT= -0.4942139E-07 <-- DLTA
 ------------------------------------------------------------------------------
 Cycle:     81
  WF centre and spread    1  (  2.097001, -0.000000, -0.000000 )     0.91950400
  WF centre and spread    2  ( -2.097001,  0.000000,  0.000000 )     0.91960401
  WF centre and spread    3  (  0.000000,  0.000000,  2.097001 )     0.91986245
  Sum of centres and spreads (  0.000000,  0.000000,  2.097001 )     2.75897046
 
     81    -0.710E-07     0.0000899169        2.7589715168       0.25  <-- CONV
        O_D=      0.0000000 O_OD=      0.0107511 O_TOT=      2.7589715 <-- SPRD
 Delta: O_D=  0.1129294E-07 O_OD= -0.8232143E-07 O_TOT= -0.7102848E-07 <-- DLTA
 ------------------------------------------------------------------------------
 Cycle:     82
  WF centre and spread    1  (  2.097001, -0.000000, -0.000000 )     0.91950394
  WF centre and spread    2  ( -2.097001,  0.000000,  0.000000 )     0.91960400
  WF centre and spread    3  (  0.000000,  0.000000,  2.097001 )     0.91986240
  Sum of centres and spreads (  0.000000,  0.000000,  2.097001 )     2.75897034
 
     82    -0.126E-06     0.0001199038        2.7589713911       0.26  <-- CONV
        O_D=      0.0000001 O_OD=      0.0107509 O_TOT=      2.7589714 <-- SPRD
 Delta: O_D=  0.3598259E-07 O_OD= -0.1616555E-06 O_TOT= -0.1256730E-06 <-- DLTA
 ------------------------------------------------------------------------------
 Cycle:     83
  WF centre and spread    1  (  2.097001, -0.000000, -0.000000 )     0.91950385
  WF centre and spread    2  ( -2.097001,  0.000000,  0.000000 )     0.91960394
  WF centre and spread    3  (  0.000000,  0.000000,  2.097001 )     0.91986233
  Sum of centres and spreads (  0.000000,  0.000000,  2.097001 )     2.75897012
 
     83    -0.213E-06     0.0001521351        2.7589711776       0.26  <-- CONV
        O_D=      0.0000001 O_OD=      0.0107506 O_TOT=      2.7589712 <-- SPRD
 Delta: O_D=  0.8058673E-07 O_OD= -0.2940704E-06 O_TOT= -0.2134837E-06 <-- DLTA
 ------------------------------------------------------------------------------
 Cycle:     84
  WF centre and spread    1  (  2.097001, -0.000000, -0.000000 )     0.91950375
  WF centre and spread    2  ( -2.097001,  0.000000,  0.000000 )     0.91960384
  WF centre and spread    3  (  0.000000,  0.000000,  2.097001 )     0.91986224
  Sum of centres and spreads (  0.000000,  0.000000,  2.097001 )     2.75896983
 
     84    -0.297E-06     0.0001917838        2.7589708811       0.26  <-- CONV
        O_D=      0.0000003 O_OD=      0.0107502 O_TOT=      2.7589709 <-- SPRD
 Delta: O_D=  0.1484113E-06 O_OD= -0.4449364E-06 O_TOT= -0.2965251E-06 <-- DLTA
 ------------------------------------------------------------------------------
 Cycle:     85
  WF centre and spread    1  (  2.097001, -0.000000, -0.000000 )     0.91950366
  WF centre and spread    2  ( -2.097001,  0.000000,  0.000000 )     0.91960373
  WF centre and spread    3  (  0.000000,  0.000000,  2.097001 )     0.91986215
  Sum of centres and spreads (  0.000000,  0.000000,  2.097001 )     2.75896955
 
     85    -0.281E-06     0.0003030266        2.7589706005       0.26  <-- CONV
        O_D=      0.0000002 O_OD=      0.0107500 O_TOT=      2.7589706 <-- SPRD
 Delta: O_D= -0.1312358E-06 O_OD= -0.1494025E-06 O_TOT= -0.2806383E-06 <-- DLTA
 ------------------------------------------------------------------------------
 Cycle:     86
  WF centre and spread    1  (  2.097001, -0.000000, -0.000000 )     0.91950363
  WF centre and spread    2  ( -2.097001,  0.000000,  0.000000 )     0.91960364
  WF centre and spread    3  (  0.000000,  0.000000,  2.097001 )     0.91986208
  Sum of centres and spreads (  0.000000,  0.000000,  2.097001 )     2.75896934
 
     86    -0.200E-06     0.0001875772        2.7589704003       0.26  <-- CONV
        O_D=      0.0000001 O_OD=      0.0107499 O_TOT=      2.7589704 <-- SPRD
 Delta: O_D= -0.8014876E-07 O_OD= -0.1200274E-06 O_TOT= -0.2001762E-06 <-- DLTA
 ------------------------------------------------------------------------------
 Cycle:     87
  WF centre and spread    1  (  2.097001, -0.000000, -0.000000 )     0.91950362
  WF centre and spread    2  ( -2.097001,  0.000000,  0.000000 )     0.91960359
  WF centre and spread    3  (  0.000000,  0.000000,  2.097001 )     0.91986201
  Sum of centres and spreads (  0.000000,  0.000000,  2.097001 )     2.75896922
 
     87    -0.126E-06     0.0001508230        2.7589702740       0.27  <-- CONV
        O_D=      0.0000000 O_OD=      0.0107498 O_TOT=      2.7589703 <-- SPRD
 Delta: O_D= -0.4582593E-07 O_OD= -0.8049532E-07 O_TOT= -0.1263213E-06 <-- DLTA
 ------------------------------------------------------------------------------
 Cycle:     88
  WF centre and spread    1  (  2.097001, -0.000000, -0.000000 )     0.91950363
  WF centre and spread    2  ( -2.097001,  0.000000,  0.000000 )     0.91960356
  WF centre and spread    3  (  0.000000,  0.000000,  2.097001 )     0.91986196
  Sum of centres and spreads (  0.000000,  0.000000,  2.097001 )     2.75896914
 
     88    -0.751E-07     0.0001216109        2.7589701989       0.27  <-- CONV
        O_D=      0.0000000 O_OD=      0.0107497 O_TOT=      2.7589702 <-- SPRD
 Delta: O_D= -0.1744530E-07 O_OD= -0.5760996E-07 O_TOT= -0.7505526E-07 <-- DLTA
 ------------------------------------------------------------------------------
 Cycle:     89
  WF centre and spread    1  (  2.097001, -0.000000, -0.000000 )     0.91950363
  WF centre and spread    2  ( -2.097001,  0.000000,  0.000000 )     0.91960355
  WF centre and spread    3  (  0.000000,  0.000000,  2.097001 )     0.91986190
  Sum of centres and spreads (  0.000000,  0.000000,  2.097001 )     2.75896909
 
     89    -0.553E-07     0.0000948031        2.7589701437       0.27  <-- CONV
        O_D=      0.0000000 O_OD=      0.0107497 O_TOT=      2.7589701 <-- SPRD
 Delta: O_D= -0.1289485E-09 O_OD= -0.5512171E-07 O_TOT= -0.5525066E-07 <-- DLTA
 ------------------------------------------------------------------------------
 Cycle:     90
  WF centre and spread    1  (  2.097001, -0.000000, -0.000000 )     0.91950364
  WF centre and spread    2  ( -2.097001,  0.000000,  0.000000 )     0.91960356
  WF centre and spread    3  (  0.000000,  0.000000,  2.097001 )     0.91986184
  Sum of centres and spreads (  0.000000,  0.000000,  2.097001 )     2.75896904
 
     90    -0.458E-07     0.0000855596        2.7589700979       0.27  <-- CONV
        O_D=      0.0000000 O_OD=      0.0107496 O_TOT=      2.7589701 <-- SPRD
 Delta: O_D=  0.1498527E-07 O_OD= -0.6075821E-07 O_TOT= -0.4577294E-07 <-- DLTA
 ------------------------------------------------------------------------------
 Cycle:     91
  WF centre and spread    1  (  2.097001, -0.000000, -0.000000 )     0.91950362
  WF centre and spread    2  ( -2.097001,  0.000000,  0.000000 )     0.91960356
  WF centre and spread    3  (  0.000000,  0.000000,  2.097001 )     0.91986182
  Sum of centres and spreads (  0.000000,  0.000000,  2.097001 )     2.75896900
 
     91    -0.425E-07     0.0001128367        2.7589700554       0.27  <-- CONV
        O_D=      0.0000000 O_OD=      0.0107496 O_TOT=      2.7589701 <-- SPRD
 Delta: O_D= -0.1429244E-07 O_OD= -0.2818168E-07 O_TOT= -0.4247413E-07 <-- DLTA
 ------------------------------------------------------------------------------
 Cycle:     92
  WF centre and spread    1  (  2.097001, -0.000000, -0.000000 )     0.91950360
  WF centre and spread    2  ( -2.097001,  0.000000,  0.000000 )     0.91960355
  WF centre and spread    3  (  0.000000,  0.000000,  2.097001 )     0.91986179
  Sum of centres and spreads (  0.000000,  0.000000,  2.097001 )     2.75896895
 
     92    -0.504E-07     0.0000817586        2.7589700050       0.28  <-- CONV
        O_D=      0.0000000 O_OD=      0.0107496 O_TOT=      2.7589700 <-- SPRD
 Delta: O_D= -0.1130100E-08 O_OD= -0.4927899E-07 O_TOT= -0.5040909E-07 <-- DLTA
 ------------------------------------------------------------------------------
 Cycle:     93
  WF centre and spread    1  (  2.097001, -0.000000, -0.000000 )     0.91950356
  WF centre and spread    2  ( -2.097001,  0.000000,  0.000000 )     0.91960355
  WF centre and spread    3  (  0.000000,  0.000000,  2.097001 )     0.91986176
  Sum of centres and spreads (  0.000000,  0.000000,  2.097001 )     2.75896888
 
     93    -0.718E-07     0.0000913023        2.7589699332       0.28  <-- CONV
        O_D=      0.0000000 O_OD=      0.0107495 O_TOT=      2.7589699 <-- SPRD
 Delta: O_D=  0.1202955E-07 O_OD= -0.8386476E-07 O_TOT= -0.7183521E-07 <-- DLTA
 ------------------------------------------------------------------------------
 Cycle:     94
  WF centre and spread    1  (  2.097001, -0.000000, -0.000000 )     0.91950350
  WF centre and spread    2  ( -2.097001,  0.000000,  0.000000 )     0.91960353
  WF centre and spread    3  (  0.000000,  0.000000,  2.097001 )     0.91986172
  Sum of centres and spreads (  0.000000,  0.000000,  2.097001 )     2.75896875
 
     94    -0.125E-06     0.0001205413        2.7589698082       0.28  <-- CONV
        O_D=      0.0000001 O_OD=      0.0107493 O_TOT=      2.7589698 <-- SPRD
 Delta: O_D=  0.3709766E-07 O_OD= -0.1620883E-06 O_TOT= -0.1249906E-06 <-- DLTA
 ------------------------------------------------------------------------------
 Cycle:     95
  WF centre and spread    1  (  2.097001, -0.000000, -0.000000 )     0.91950341
  WF centre and spread    2  ( -2.097001,  0.000000,  0.000000 )     0.91960347
  WF centre and spread    3  (  0.000000,  0.000000,  2.097001 )     0.91986167
  Sum of centres and spreads (  0.000000,  0.000000,  2.097001 )     2.75896855
 
     95    -0.206E-06     0.0001513747        2.7589696017       0.28  <-- CONV
        O_D=      0.0000001 O_OD=      0.0107490 O_TOT=      2.7589696 <-- SPRD
 Delta: O_D=  0.8399438E-07 O_OD= -0.2904895E-06 O_TOT= -0.2064951E-06 <-- DLTA
 ------------------------------------------------------------------------------
 Cycle:     96
  WF centre and spread    1  (  2.097001, -0.000000, -0.000000 )     0.91950331
  WF centre and spread    2  ( -2.097001,  0.000000,  0.000000 )     0.91960336
  WF centre and spread    3  (  0.000000,  0.000000,  2.097001 )     0.91986159
  Sum of centres and spreads (  0.000000,  0.000000,  2.097001 )     2.75896826
 
     96    -0.290E-06     0.0001881841        2.7589693120       0.28  <-- CONV
        O_D=      0.0000003 O_OD=      0.0107486 O_TOT=      2.7589693 <-- SPRD
 Delta: O_D=  0.1543168E-06 O_OD= -0.4440289E-06 O_TOT= -0.2897122E-06 <-- DLTA
 ------------------------------------------------------------------------------
 Cycle:     97
  WF centre and spread    1  (  2.097001, -0.000000, -0.000000 )     0.91950323
  WF centre and spread    2  ( -2.097001,  0.000000,  0.000000 )     0.91960326
  WF centre and spread    3  (  0.000000,  0.000000,  2.097001 )     0.91986149
  Sum of centres and spreads (  0.000000,  0.000000,  2.097001 )     2.75896798
 
[...]
  Sum of centres and spreads (  0.000000,  0.000000,  2.097001 )     2.75891640
 
    473    -0.581E-07     0.0000965296        2.7589174530       1.29  <-- CONV
        O_D=      0.0000000 O_OD=      0.0106970 O_TOT=      2.7589175 <-- SPRD
 Delta: O_D=  0.1130978E-07 O_OD= -0.6944853E-07 O_TOT= -0.5813875E-07 <-- DLTA
 ------------------------------------------------------------------------------
 Cycle:    474
  WF centre and spread    1  (  2.097001, -0.000000, -0.000000 )     0.91948964
  WF centre and spread    2  ( -2.097001,  0.000000,  0.000000 )     0.91958844
  WF centre and spread    3  (  0.000000,  0.000000,  2.097001 )     0.91983827
  Sum of centres and spreads (  0.000000,  0.000000,  2.097001 )     2.75891636
 
    474    -0.409E-07     0.0000740041        2.7589174121       1.29  <-- CONV
        O_D=      0.0000000 O_OD=      0.0106969 O_TOT=      2.7589174 <-- SPRD
 Delta: O_D=  0.1453241E-07 O_OD= -0.5543556E-07 O_TOT= -0.4090315E-07 <-- DLTA
 ------------------------------------------------------------------------------
 Cycle:    475
  WF centre and spread    1  (  2.097001, -0.000000, -0.000000 )     0.91948962
  WF centre and spread    2  ( -2.097001,  0.000000,  0.000000 )     0.91958843
  WF centre and spread    3  (  0.000000,  0.000000,  2.097001 )     0.91983827
  Sum of centres and spreads (  0.000000,  0.000000,  2.097001 )     2.75891631
 
    475    -0.418E-07     0.0001260452        2.7589173703       1.29  <-- CONV
        O_D=      0.0000000 O_OD=      0.0106969 O_TOT=      2.7589174 <-- SPRD
 Delta: O_D= -0.1424586E-07 O_OD= -0.2754914E-07 O_TOT= -0.4179500E-07 <-- DLTA
 ------------------------------------------------------------------------------
 Cycle:    476
  WF centre and spread    1  (  2.097001, -0.000000, -0.000000 )     0.91948959
  WF centre and spread    2  ( -2.097001,  0.000000,  0.000000 )     0.91958838
  WF centre and spread    3  (  0.000000,  0.000000,  2.097001 )     0.91983828
  Sum of centres and spreads (  0.000000,  0.000000,  2.097001 )     2.75891626
 
    476    -0.581E-07     0.0000735333        2.7589173122       1.29  <-- CONV
        O_D=      0.0000000 O_OD=      0.0106969 O_TOT=      2.7589173 <-- SPRD
 Delta: O_D= -0.1196499E-07 O_OD= -0.4612589E-07 O_TOT= -0.5809088E-07 <-- DLTA
 ------------------------------------------------------------------------------
 Cycle:    477
  WF centre and spread    1  (  2.097001, -0.000000, -0.000000 )     0.91948954
  WF centre and spread    2  ( -2.097001,  0.000000,  0.000000 )     0.91958833
  WF centre and spread    3  (  0.000000,  0.000000,  2.097001 )     0.91983832
  Sum of centres and spreads (  0.000000,  0.000000,  2.097001 )     2.75891619
 
    477    -0.704E-07     0.0000964311        2.7589172418       1.29  <-- CONV
        O_D=      0.0000000 O_OD=      0.0106968 O_TOT=      2.7589172 <-- SPRD
 Delta: O_D=  0.1758049E-07 O_OD= -0.8794909E-07 O_TOT= -0.7036860E-07 <-- DLTA
 ------------------------------------------------------------------------------
 Cycle:    478
  WF centre and spread    1  (  2.097001, -0.000000, -0.000000 )     0.91948946
  WF centre and spread    2  ( -2.097001,  0.000000,  0.000000 )     0.91958824
  WF centre and spread    3  (  0.000000,  0.000000,  2.097001 )     0.91983837
  Sum of centres and spreads (  0.000000,  0.000000,  2.097001 )     2.75891606
 
    478    -0.123E-06     0.0001162704        2.7589171193       1.30  <-- CONV
        O_D=      0.0000001 O_OD=      0.0106966 O_TOT=      2.7589171 <-- SPRD
 Delta: O_D=  0.4840718E-07 O_OD= -0.1709314E-06 O_TOT= -0.1225242E-06 <-- DLTA
 ------------------------------------------------------------------------------
 Cycle:    479
  WF centre and spread    1  (  2.097001, -0.000000, -0.000000 )     0.91948940
  WF centre and spread    2  ( -2.097001,  0.000000,  0.000000 )     0.91958815
  WF centre and spread    3  (  0.000000,  0.000000,  2.097001 )     0.91983838
  Sum of centres and spreads (  0.000000,  0.000000,  2.097001 )     2.75891592
 
    479    -0.140E-06     0.0001470165        2.7589169791       1.30  <-- CONV
        O_D=      0.0000002 O_OD=      0.0106964 O_TOT=      2.7589170 <-- SPRD
 Delta: O_D=  0.9960083E-07 O_OD= -0.2398290E-06 O_TOT= -0.1402282E-06 <-- DLTA
 ------------------------------------------------------------------------------
 Cycle:    480
  WF centre and spread    1  (  2.097001, -0.000000, -0.000000 )     0.91948934
  WF centre and spread    2  ( -2.097001,  0.000000,  0.000000 )     0.91958807
  WF centre and spread    3  (  0.000000,  0.000000,  2.097001 )     0.91983831
  Sum of centres and spreads (  0.000000,  0.000000,  2.097001 )     2.75891572
 
    480    -0.205E-06     0.0001530814        2.7589167740       1.30  <-- CONV
        O_D=      0.0000003 O_OD=      0.0106960 O_TOT=      2.7589168 <-- SPRD
 Delta: O_D=  0.1267608E-06 O_OD= -0.3319024E-06 O_TOT= -0.2051417E-06 <-- DLTA
 ------------------------------------------------------------------------------
 Cycle:    481
  WF centre and spread    1  (  2.097001, -0.000000, -0.000000 )     0.91948929
  WF centre and spread    2  ( -2.097001,  0.000000,  0.000000 )     0.91958803
  WF centre and spread    3  (  0.000000,  0.000000,  2.097001 )     0.91983820
  Sum of centres and spreads (  0.000000,  0.000000,  2.097001 )     2.75891551
 
    481    -0.205E-06     0.0002178406        2.7589165685       1.30  <-- CONV
        O_D=      0.0000002 O_OD=      0.0106959 O_TOT=      2.7589166 <-- SPRD
 Delta: O_D= -0.1217601E-06 O_OD= -0.8370413E-07 O_TOT= -0.2054642E-06 <-- DLTA
 ------------------------------------------------------------------------------
 Cycle:    482
  WF centre and spread    1  (  2.097001, -0.000000, -0.000000 )     0.91948928
  WF centre and spread    2  ( -2.097001,  0.000000,  0.000000 )     0.91958804
  WF centre and spread    3  (  0.000000,  0.000000,  2.097001 )     0.91983806
  Sum of centres and spreads (  0.000000,  0.000000,  2.097001 )     2.75891538
 
    482    -0.137E-06     0.0001533010        2.7589164310       1.30  <-- CONV
        O_D=      0.0000001 O_OD=      0.0106959 O_TOT=      2.7589164 <-- SPRD
 Delta: O_D= -0.9786492E-07 O_OD= -0.3961322E-07 O_TOT= -0.1374781E-06 <-- DLTA
 ------------------------------------------------------------------------------
 Cycle:    483
  WF centre and spread    1  (  2.097001, -0.000000, -0.000000 )     0.91948930
  WF centre and spread    2  ( -2.097001,  0.000000,  0.000000 )     0.91958806
  WF centre and spread    3  (  0.000000,  0.000000,  2.097001 )     0.91983790
  Sum of centres and spreads (  0.000000,  0.000000,  2.097001 )     2.75891525
 
    483    -0.122E-06     0.0001481482        2.7589163091       1.31  <-- CONV
        O_D=      0.0000000 O_OD=      0.0106958 O_TOT=      2.7589163 <-- SPRD
 Delta: O_D= -0.5303558E-07 O_OD= -0.6882671E-07 O_TOT= -0.1218623E-06 <-- DLTA
 ------------------------------------------------------------------------------
 Cycle:    484
  WF centre and spread    1  (  2.097001, -0.000000, -0.000000 )     0.91948931
  WF centre and spread    2  ( -2.097001,  0.000000,  0.000000 )     0.91958808
  WF centre and spread    3  (  0.000000,  0.000000,  2.097001 )     0.91983780
  Sum of centres and spreads (  0.000000,  0.000000,  2.097001 )     2.75891518
 
    484    -0.715E-07     0.0001185193        2.7589162377       1.31  <-- CONV
        O_D=      0.0000000 O_OD=      0.0106958 O_TOT=      2.7589162 <-- SPRD
 Delta: O_D= -0.1923702E-07 O_OD= -0.5224245E-07 O_TOT= -0.7147946E-07 <-- DLTA
 ------------------------------------------------------------------------------
 Cycle:    485
  WF centre and spread    1  (  2.097001, -0.000000, -0.000000 )     0.91948932
  WF centre and spread    2  ( -2.097001,  0.000000,  0.000000 )     0.91958808
  WF centre and spread    3  (  0.000000,  0.000000,  2.097001 )     0.91983772
  Sum of centres and spreads (  0.000000,  0.000000,  2.097001 )     2.75891512
 
    485    -0.585E-07     0.0000980781        2.7589161791       1.31  <-- CONV
        O_D=      0.0000000 O_OD=      0.0106957 O_TOT=      2.7589162 <-- SPRD
 Delta: O_D=  0.1222413E-07 O_OD= -0.7075823E-07 O_TOT= -0.5853409E-07 <-- DLTA
 ------------------------------------------------------------------------------
 Cycle:    486
  WF centre and spread    1  (  2.097001, -0.000000, -0.000000 )     0.91948931
  WF centre and spread    2  ( -2.097001,  0.000000,  0.000000 )     0.91958808
  WF centre and spread    3  (  0.000000,  0.000000,  2.097001 )     0.91983769
  Sum of centres and spreads (  0.000000,  0.000000,  2.097001 )     2.75891508
 
    486    -0.413E-07     0.0000735953        2.7589161378       1.31  <-- CONV
        O_D=      0.0000000 O_OD=      0.0106957 O_TOT=      2.7589161 <-- SPRD
 Delta: O_D=  0.1328658E-07 O_OD= -0.5463029E-07 O_TOT= -0.4134372E-07 <-- DLTA
 ------------------------------------------------------------------------------
 Cycle:    487
  WF centre and spread    1  (  2.097001, -0.000000, -0.000000 )     0.91948930
  WF centre and spread    2  ( -2.097001,  0.000000,  0.000000 )     0.91958806
  WF centre and spread    3  (  0.000000,  0.000000,  2.097001 )     0.91983768
  Sum of centres and spreads (  0.000000,  0.000000,  2.097001 )     2.75891504
 
    487    -0.406E-07     0.0001228894        2.7589160972       1.31  <-- CONV
        O_D=      0.0000000 O_OD=      0.0106956 O_TOT=      2.7589161 <-- SPRD
 Delta: O_D= -0.1389262E-07 O_OD= -0.2667112E-07 O_TOT= -0.4056374E-07 <-- DLTA
 ------------------------------------------------------------------------------
 Cycle:    488
  WF centre and spread    1  (  2.097001, -0.000000, -0.000000 )     0.91948926
  WF centre and spread    2  ( -2.097001,  0.000000,  0.000000 )     0.91958802
  WF centre and spread    3  (  0.000000,  0.000000,  2.097001 )     0.91983770
  Sum of centres and spreads (  0.000000,  0.000000,  2.097001 )     2.75891498
 
    488    -0.587E-07     0.0000735113        2.7589160385       1.32  <-- CONV
        O_D=      0.0000000 O_OD=      0.0106956 O_TOT=      2.7589160 <-- SPRD
 Delta: O_D= -0.1159340E-07 O_OD= -0.4714043E-07 O_TOT= -0.5873383E-07 <-- DLTA
 ------------------------------------------------------------------------------
 Cycle:    489
  WF centre and spread    1  (  2.097001, -0.000000, -0.000000 )     0.91948921
  WF centre and spread    2  ( -2.097001,  0.000000,  0.000000 )     0.91958796
  WF centre and spread    3  (  0.000000,  0.000000,  2.097001 )     0.91983774
  Sum of centres and spreads (  0.000000,  0.000000,  2.097001 )     2.75891491
 
    489    -0.721E-07     0.0001008744        2.7589159664       1.32  <-- CONV
        O_D=      0.0000000 O_OD=      0.0106955 O_TOT=      2.7589160 <-- SPRD
 Delta: O_D=  0.2212460E-07 O_OD= -0.9425639E-07 O_TOT= -0.7213179E-07 <-- DLTA
 ------------------------------------------------------------------------------
 Cycle:    490
  WF centre and spread    1  (  2.097001, -0.000000, -0.000000 )     0.91948913
  WF centre and spread    2  ( -2.097001,  0.000000,  0.000000 )     0.91958787
  WF centre and spread    3  (  0.000000,  0.000000,  2.097001 )     0.91983779
  Sum of centres and spreads (  0.000000,  0.000000,  2.097001 )     2.75891479
 
    490    -0.121E-06     0.0001191545        2.7589158454       1.32  <-- CONV
        O_D=      0.0000001 O_OD=      0.0106953 O_TOT=      2.7589158 <-- SPRD
 Delta: O_D=  0.5060750E-07 O_OD= -0.1715872E-06 O_TOT= -0.1209797E-06 <-- DLTA
 ------------------------------------------------------------------------------
 Cycle:    491
  WF centre and spread    1  (  2.097001, -0.000000, -0.000000 )     0.91948907
  WF centre and spread    2  ( -2.097001,  0.000000,  0.000000 )     0.91958779
  WF centre and spread    3  (  0.000000,  0.000000,  2.097001 )     0.91983780
  Sum of centres and spreads (  0.000000,  0.000000,  2.097001 )     2.75891465
 
    491    -0.136E-06     0.0001465034        2.7589157090       1.32  <-- CONV
        O_D=      0.0000002 O_OD=      0.0106951 O_TOT=      2.7589157 <-- SPRD
 Delta: O_D=  0.9427801E-07 O_OD= -0.2306393E-06 O_TOT= -0.1363613E-06 <-- DLTA
 ------------------------------------------------------------------------------
 Cycle:    492
  WF centre and spread    1  (  2.097001, -0.000000, -0.000000 )     0.91948901
  WF centre and spread    2  ( -2.097001,  0.000000,  0.000000 )     0.91958771
  WF centre and spread    3  (  0.000000,  0.000000,  2.097001 )     0.91983773
  Sum of centres and spreads (  0.000000,  0.000000,  2.097001 )     2.75891445
 
    492    -0.205E-06     0.0001535644        2.7589155037       1.32  <-- CONV
        O_D=      0.0000003 O_OD=      0.0106948 O_TOT=      2.7589155 <-- SPRD
 Delta: O_D=  0.1146489E-06 O_OD= -0.3200169E-06 O_TOT= -0.2053681E-06 <-- DLTA
 ------------------------------------------------------------------------------
 Cycle:    493
  WF centre and spread    1  (  2.097001, -0.000000, -0.000000 )     0.91948896
  WF centre and spread    2  ( -2.097001,  0.000000,  0.000000 )     0.91958767
  WF centre and spread    3  (  0.000000,  0.000000,  2.097001 )     0.91983761
  Sum of centres and spreads (  0.000000,  0.000000,  2.097001 )     2.75891424
 
    493    -0.205E-06     0.0002149354        2.7589152988       1.33  <-- CONV
        O_D=      0.0000002 O_OD=      0.0106947 O_TOT=      2.7589153 <-- SPRD
 Delta: O_D= -0.1219274E-06 O_OD= -0.8291316E-07 O_TOT= -0.2048405E-06 <-- DLTA
 ------------------------------------------------------------------------------
 Cycle:    494
  WF centre and spread    1  (  2.097001, -0.000000, -0.000000 )     0.91948896
  WF centre and spread    2  ( -2.097001,  0.000000,  0.000000 )     0.91958767
  WF centre and spread    3  (  0.000000,  0.000000,  2.097001 )     0.91983749
  Sum of centres and spreads (  0.000000,  0.000000,  2.097001 )     2.75891411
 
    494    -0.129E-06     0.0001525618        2.7589151694       1.33  <-- CONV
        O_D=      0.0000001 O_OD=      0.0106946 O_TOT=      2.7589152 <-- SPRD
 Delta: O_D= -0.9031279E-07 O_OD= -0.3905056E-07 O_TOT= -0.1293633E-06 <-- DLTA
 ------------------------------------------------------------------------------
 Cycle:    495
  WF centre and spread    1  (  2.097001, -0.000000, -0.000000 )     0.91948897
  WF centre and spread    2  ( -2.097001,  0.000000,  0.000000 )     0.91958770
  WF centre and spread    3  (  0.000000,  0.000000,  2.097001 )     0.91983733
  Sum of centres and spreads (  0.000000,  0.000000,  2.097001 )     2.75891400
 
    495    -0.117E-06     0.0001427267        2.7589150528       1.33  <-- CONV
        O_D=      0.0000000 O_OD=      0.0106946 O_TOT=      2.7589151 <-- SPRD
 Delta: O_D= -0.5032084E-07 O_OD= -0.6633965E-07 O_TOT= -0.1166605E-06 <-- DLTA
 ------------------------------------------------------------------------------
 Cycle:    496
  WF centre and spread    1  (  2.097001, -0.000000, -0.000000 )     0.91948899
  WF centre and spread    2  ( -2.097001,  0.000000,  0.000000 )     0.91958772
  WF centre and spread    3  (  0.000000,  0.000000,  2.097001 )     0.91983722
  Sum of centres and spreads (  0.000000,  0.000000,  2.097001 )     2.75891392
 
    496    -0.735E-07     0.0001172206        2.7589149793       1.33  <-- CONV
        O_D=      0.0000000 O_OD=      0.0106945 O_TOT=      2.7589150 <-- SPRD
 Delta: O_D= -0.1900027E-07 O_OD= -0.5452601E-07 O_TOT= -0.7352628E-07 <-- DLTA
 ------------------------------------------------------------------------------
 Cycle:    497
  WF centre and spread    1  (  2.097001, -0.000000, -0.000000 )     0.91948899
  WF centre and spread    2  ( -2.097001,  0.000000,  0.000000 )     0.91958772
  WF centre and spread    3  (  0.000000,  0.000000,  2.097001 )     0.91983715
  Sum of centres and spreads (  0.000000,  0.000000,  2.097001 )     2.75891387
 
    497    -0.584E-07     0.0000997549        2.7589149208       1.33  <-- CONV
        O_D=      0.0000000 O_OD=      0.0106945 O_TOT=      2.7589149 <-- SPRD
 Delta: O_D=  0.1216772E-07 O_OD= -0.7061155E-07 O_TOT= -0.5844382E-07 <-- DLTA
 ------------------------------------------------------------------------------
 Cycle:    498
  WF centre and spread    1  (  2.097001, -0.000000, -0.000000 )     0.91948899
  WF centre and spread    2  ( -2.097001,  0.000000,  0.000000 )     0.91958772
  WF centre and spread    3  (  0.000000,  0.000000,  2.097001 )     0.91983712
  Sum of centres and spreads (  0.000000,  0.000000,  2.097001 )     2.75891382
 
    498    -0.412E-07     0.0000730524        2.7589148796       1.34  <-- CONV
        O_D=      0.0000000 O_OD=      0.0106944 O_TOT=      2.7589149 <-- SPRD
 Delta: O_D=  0.1515366E-07 O_OD= -0.5636971E-07 O_TOT= -0.4121605E-07 <-- DLTA
 ------------------------------------------------------------------------------
 Cycle:    499
  WF centre and spread    1  (  2.097001, -0.000000, -0.000000 )     0.91948897
  WF centre and spread    2  ( -2.097001,  0.000000,  0.000000 )     0.91958770
  WF centre and spread    3  (  0.000000,  0.000000,  2.097001 )     0.91983711
  Sum of centres and spreads (  0.000000,  0.000000,  2.097001 )     2.75891378
 
    499    -0.420E-07     0.0001265582        2.7589148376       1.34  <-- CONV
        O_D=      0.0000000 O_OD=      0.0106944 O_TOT=      2.7589148 <-- SPRD
 Delta: O_D= -0.1498850E-07 O_OD= -0.2705026E-07 O_TOT= -0.4203876E-07 <-- DLTA
 ------------------------------------------------------------------------------
 Cycle:    500
  WF centre and spread    1  (  2.097001, -0.000000, -0.000000 )     0.91948894
  WF centre and spread    2  ( -2.097001,  0.000000,  0.000000 )     0.91958766
  WF centre and spread    3  (  0.000000,  0.000000,  2.097001 )     0.91983713
  Sum of centres and spreads (  0.000000,  0.000000,  2.097001 )     2.75891372
 
    500    -0.576E-07     0.0000731542        2.7589147800       1.34  <-- CONV
        O_D=      0.0000000 O_OD=      0.0106943 O_TOT=      2.7589148 <-- SPRD
 Delta: O_D= -0.1410430E-07 O_OD= -0.4349884E-07 O_TOT= -0.5760314E-07 <-- DLTA
 ------------------------------------------------------------------------------

 Writing checkpoint file mp-1265.chk... done

 Final State
  WF centre and spread    1  (  2.097001, -0.000000, -0.000000 )     0.91948894
  WF centre and spread    2  ( -2.097001,  0.000000,  0.000000 )     0.91958766
  WF centre and spread    3  (  0.000000,  0.000000,  2.097001 )     0.91983713
  Sum of centres and spreads (  0.000000,  0.000000,  2.097001 )     2.75891372
 
         Spreads (Ang^2)       Omega I      =     2.748220439
        ================       Omega D      =     0.000000013
                               Omega OD     =     0.010694328
    Final Spread (Ang^2)       Omega Total  =     2.758914780
 ------------------------------------------------------------------------------
 Time for wannierise            1.085 (sec)

 Writing checkpoint file mp-1265.chk... done

 Time for plotting              0.000 (sec)
 Total Execution Time           2.059 (sec)

 *===========================================================================*
 |                             TIMING INFORMATION                            |
 *===========================================================================*
 |    Tag                                                Ncalls      Time (s)|
 |---------------------------------------------------------------------------|
 |kmesh: get                                        :         1         0.715|
 |overlap: allocate                                 :         1         0.001|
 |overlap: read                                     :         1         0.111|
 |wann: main                                        :         1         1.085|
 |plot: main                                        :         1         0.000|
 *---------------------------------------------------------------------------*
 
 All done: wannier90 exiting
