
     Program PWSCF v.7.1 starts on  3Jan2024 at 14:29: 8 

     This program is part of the open-source Quantum ESPRESSO suite
     for quantum simulation of materials; please cite
         "P. Giannozzi et al., J. Phys.:Condens. Matter 21 395502 (2009);
         "P. Giannozzi et al., J. Phys.:Condens. Matter 29 465901 (2017);
         "P. Giannozzi et al., J. Chem. Phys. 152 154105 (2020);
          URL http://www.quantum-espresso.org", 
     in publications or presentations arising from this work. More details at
     http://www.quantum-espresso.org/quote

     Parallel version (MPI), running on     8 processors

     MPI processes distributed on     1 nodes
     247354 MiB available memory on the printing compute node when the environment starts
 
     Reading input from pw_mp-682_emass_k3000_E130.in
Warning: card &IONS ignored
Warning: card / ignored
Warning: card &CELL ignored
Warning: card / ignored

     Current dimensions of program PWSCF are:
     Max number of different atomic species (ntypx) = 10
     Max number of k-points (npk) =  40000
     Max angular momentum in pseudopotentials (lmaxx) =  4

     Atomic positions and unit cell read from directory:
     out/mp-682.save/
     Atomic positions from file used, from input discarded
 
 
     R & G space division:  proc/nbgrp/npool/nimage =       8
     Subspace diagonalization in iterative solution of the eigenvalue problem:
     a serial algorithm will be used

 
     Parallelization info
     --------------------
     sticks:   dense  smooth     PW     G-vecs:    dense   smooth      PW
     Min         168     168     42                 4038     4038     501
     Max         169     169     43                 4040     4040     503
     Sum        1345    1345    337                32311    32311    4015
 
     Using Slab Decomposition
 


     bravais-lattice index     =            2
     lattice parameter (alat)  =       8.6394  a.u.
     unit-cell volume          =     161.2111 (a.u.)^3
     number of atoms/cell      =            2
     number of atomic types    =            2
     number of electrons       =        16.00
     number of Kohn-Sham states=           16
     kinetic-energy cutoff     =     130.0000  Ry
     charge density cutoff     =     520.0000  Ry
     Exchange-correlation= PBE
                           (   1   4   3   4   0   0   0)

     celldm(1)=   8.639428  celldm(2)=   0.000000  celldm(3)=   0.000000
     celldm(4)=   0.000000  celldm(5)=   0.000000  celldm(6)=   0.000000

     crystal axes: (cart. coord. in units of alat)
               a(1) = (  -0.500000   0.000000   0.500000 )  
               a(2) = (   0.000000   0.500000   0.500000 )  
               a(3) = (  -0.500000   0.500000   0.000000 )  

     reciprocal axes: (cart. coord. in units 2 pi/alat)
               b(1) = ( -1.000000 -1.000000  1.000000 )  
               b(2) = (  1.000000  1.000000  1.000000 )  
               b(3) = ( -1.000000  1.000000 -1.000000 )  


     PseudoPot. # 1 for F  read from file:
     /usr/scratch4/magr4985/MG/devEb/pseudo/SG15/F.upf
     MD5 check sum: 24dce47753c7134a0159dc9c6586d93a
     Pseudo is Norm-conserving, Zval =  7.0
     Generated using ONCVPSP code by D. R. Hamann
     Using radial grid of  602 points,  4 beta functions with: 
                l(1) =   0
                l(2) =   0
                l(3) =   1
                l(4) =   1

     PseudoPot. # 2 for Na read from file:
     /usr/scratch4/magr4985/MG/devEb/pseudo/SG15/Na.upf
     MD5 check sum: b5675fcfec0094e74c3198b687cdd8c0
     Pseudo is Norm-conserving, Zval =  9.0
     Generated using ONCVPSP code by D. R. Hamann
     Using radial grid of  602 points,  4 beta functions with: 
                l(1) =   0
                l(2) =   0
                l(3) =   1
                l(4) =   1

     atomic species   valence    mass     pseudopotential
        F              7.00    18.99840     F ( 1.00)
        Na             9.00    22.98980     Na( 1.00)

     48 Sym. Ops., with inversion, found



   Cartesian axes

     site n.     atom                  positions (alat units)
         1           Na  tau(   1) = (   0.0000000   0.0000000   0.0000000  )
         2           F   tau(   2) = (  -0.5000000   0.5000000   0.5000000  )

     number of k points=     7  Gaussian smearing, width (Ry)=  0.0005
                       cart. coord. in units 2pi/alat
        k(    1) = (   0.0000000   0.0000000   0.0000000), wk =   0.2857143
        k(    2) = (   0.0100000   0.0000000   0.0000000), wk =   0.2857143
        k(    3) = (  -0.0100000   0.0000000   0.0000000), wk =   0.2857143
        k(    4) = (   0.0000000   0.0100000   0.0000000), wk =   0.2857143
        k(    5) = (   0.0000000  -0.0100000   0.0000000), wk =   0.2857143
        k(    6) = (   0.0000000   0.0000000   0.0100000), wk =   0.2857143
        k(    7) = (   0.0000000   0.0000000  -0.0100000), wk =   0.2857143

     Dense  grid:    32311 G-vectors     FFT dimensions: (  45,  45,  45)

     Estimated max dynamical RAM per process >       3.90 MB

     Estimated total dynamical RAM >      31.21 MB

     The potential is recalculated from file :
     out/mp-682.save/charge-density

     Starting wfcs are random

     Band Structure Calculation
     ParO style diagonalization

     ethr =  5.00E-06,  avg # of iterations = 15.3

     total cpu time spent up to now is        1.1 secs

     End of band structure calculation

          k = 0.0000 0.0000 0.0000 (  4015 PWs)   bands (ev):

   -45.3664 -17.5374 -17.2652 -17.2652 -17.2652   1.6096   1.6096   1.6096
     8.1927  21.0533  21.0533  21.0533  23.8942  26.3228  26.3228  29.1716

          k = 0.0100 0.0000 0.0000 (  4015 PWs)   bands (ev):

   -45.3664 -17.5383 -17.2652 -17.2652 -17.2642   1.6089   1.6095   1.6095
     8.1940  21.0468  21.0536  21.0536  23.9022  26.3185  26.3235  29.1732

          k =-0.0100 0.0000 0.0000 (  4015 PWs)   bands (ev):

   -45.3664 -17.5383 -17.2652 -17.2652 -17.2642   1.6089   1.6095   1.6095
     8.1940  21.0468  21.0536  21.0536  23.9022  26.3185  26.3235  29.1728

          k = 0.0000 0.0100 0.0000 (  4015 PWs)   bands (ev):

   -45.3664 -17.5383 -17.2652 -17.2652 -17.2642   1.6089   1.6095   1.6095
     8.1940  21.0468  21.0536  21.0536  23.9022  26.3185  26.3235  29.1736

          k = 0.0000-0.0100 0.0000 (  4015 PWs)   bands (ev):

   -45.3664 -17.5383 -17.2652 -17.2652 -17.2642   1.6089   1.6095   1.6095
     8.1940  21.0468  21.0536  21.0536  23.9022  26.3185  26.3235  29.1728

          k = 0.0000 0.0000 0.0100 (  4015 PWs)   bands (ev):

   -45.3664 -17.5383 -17.2652 -17.2652 -17.2642   1.6089   1.6095   1.6095
     8.1940  21.0468  21.0536  21.0536  23.9022  26.3185  26.3235  29.1728

          k = 0.0000 0.0000-0.0100 (  4015 PWs)   bands (ev):

   -45.3664 -17.5383 -17.2652 -17.2652 -17.2642   1.6089   1.6095   1.6095
     8.1940  21.0468  21.0536  21.0536  23.9022  26.3185  26.3235  29.1731

     the Fermi energy is     5.9033 ev
     (compare with:     5.9033 eV, computed in scf)

     Writing all to output data dir out/mp-682.save/
 
     init_run     :      0.04s CPU      0.18s WALL (       1 calls)
     electrons    :      0.74s CPU      0.76s WALL (       1 calls)

     Called by init_run:
     wfcinit      :      0.00s CPU      0.00s WALL (       1 calls)
     potinit      :      0.01s CPU      0.13s WALL (       1 calls)
     hinit0       :      0.01s CPU      0.02s WALL (       1 calls)

     Called by electrons:
     c_bands      :      0.74s CPU      0.76s WALL (       1 calls)
     v_of_rho     :      0.00s CPU      0.01s WALL (       1 calls)

     Called by c_bands:
     init_us_2    :      0.00s CPU      0.00s WALL (       7 calls)
     init_us_2:cp :      0.00s CPU      0.00s WALL (       7 calls)
     paro_k       :      0.69s CPU      0.71s WALL (       7 calls)

     Called by paro_*:
     h_psi        :      0.58s CPU      0.60s WALL (     329 calls)
     g_psi        :      0.01s CPU      0.01s WALL (    2146 calls)

     Called by h_psi:
     h_psi:calbec :      0.02s CPU      0.02s WALL (     329 calls)
     vloc_psi     :      0.55s CPU      0.57s WALL (     329 calls)
     add_vuspsi   :      0.01s CPU      0.01s WALL (     329 calls)

     General routines
     calbec       :      0.02s CPU      0.02s WALL (     329 calls)
     fft          :      0.00s CPU      0.01s WALL (      10 calls)
     fftw         :      0.50s CPU      0.51s WALL (    3566 calls)
 
     Parallel routines
 
     PWSCF        :      0.90s CPU      1.09s WALL

 
   This run was terminated on:  14:29: 9   3Jan2024            

=------------------------------------------------------------------------------=
   JOB DONE.
=------------------------------------------------------------------------------=
