 vasp.5.4.4.18Apr17-6-g9f103f2a35 (build Aug 24 2017 11:22:49) complex          
  
 executed on             LinuxIFC date 2023.12.25  13:07:47
 running on    8 total cores
 distrk:  each k-point on    8 cores,    1 groups
 distr:  one band on NCORES_PER_BAND=   1 cores,    8 groups


--------------------------------------------------------------------------------------------------------


 INCAR:
 POTCAR:    PAW_PBE In_d 06Sep2000                
 POTCAR:    PAW_PBE I 08Apr2002                   

 ----------------------------------------------------------------------------- 
|                                                                             |
|           W    W    AA    RRRRR   N    N  II  N    N   GGGG   !!!           |
|           W    W   A  A   R    R  NN   N  II  NN   N  G    G  !!!           |
|           W    W  A    A  R    R  N N  N  II  N N  N  G       !!!           |
|           W WW W  AAAAAA  RRRRR   N  N N  II  N  N N  G  GGG   !            |
|           WW  WW  A    A  R   R   N   NN  II  N   NN  G    G                |
|           W    W  A    A  R    R  N    N  II  N    N   GGGG   !!!           |
|                                                                             |
|      For optimal performance we recommend to set                            |
|        NCORE= 4 - approx SQRT( number of cores)                             |
|      NCORE specifies how many cores store one orbital (NPAR=cpu/NCORE).     |
|      This setting can  greatly improve the performance of VASP for DFT.     |
|      The default,   NCORE=1            might be grossly inefficient         |
|      on modern multi-core architectures or massively parallel machines.     |
|      Do your own testing !!!!                                               |
|      Unfortunately you need to use the default for GW and RPA calculations. |
|      (for HF NCORE is supported but not extensively tested yet)             |
|                                                                             |
 ----------------------------------------------------------------------------- 

 POTCAR:    PAW_PBE In_d 06Sep2000                
   VRHFIN =In: s2p1                                                             
   LEXCH  = PE                                                                  
   EATOM  =  1576.8302 eV,  115.8937 Ry                                         
                                                                                
   TITEL  = PAW_PBE In_d 06Sep2000                                              
   LULTRA =        F    use ultrasoft PP ?                                      
   IUNSCR =        1    unscreen: 0-lin 1-nonlin 2-no                           
   RPACOR =    2.200    partial core radius                                     
   POMASS =  114.820; ZVAL   =   13.000    mass and valenz                      
   RCORE  =    2.500    outmost cutoff radius                                   
   RWIGS  =    3.170; RWIGS  =    1.677    wigner-seitz radius (au A)           
   ENMAX  =  239.211; ENMIN  =  179.409 eV                                      
   ICORE  =        3    local potential                                         
   LCOR   =        T    correct aug charges                                     
   LPAW   =        T    paw PP                                                  
   EAUG   =  449.704                                                            
   DEXC   =    0.000                                                            
   RMAX   =    2.552    core radius for proj-oper                               
   RAUG   =    1.300    factor for augmentation sphere                          
   RDEP   =    2.630    radius for radial grids                                 
   RDEPT  =    2.033    core radius for aug-charge                              
                                                                                
   Atomic configuration                                                         
   12 entries                                                                   
     n  l   j            E        occ.                                          
     1  0  0.50    -27747.9169   2.0000                                         
     2  0  0.50     -4154.4438   2.0000                                         
     2  1  1.50     -3728.4305   6.0000                                         
     3  0  0.50      -788.3680   2.0000                                         
     3  1  1.50      -648.9215   6.0000                                         
     3  2  2.50      -432.5893  10.0000                                         
     4  0  0.50      -119.6363   2.0000                                         
     4  1  1.50       -78.1086   6.0000                                         
     4  2  2.50       -18.6227  10.0000                                         
     5  0  0.50        -8.2107   2.0000                                         
     5  1  0.50        -2.5185   1.0000                                         
     4  3  2.50        -2.7212   0.0000                                         
   Description                                                                  
     l       E           TYP  RCUT    TYP  RCUT                                 
     2    -18.6226981     23  2.500                                             
     2     -1.3605826     23  2.500                                             
     0     -8.2107305     23  2.500                                             
     0     -6.1485975     23  2.500                                             
     1     -2.5184867     23  2.500                                             
     1      3.2427302     23  2.500                                             
     3     -1.3605826      7  2.500                                             
  local pseudopotential read in
  partial core-charges read in
  partial kinetic energy density read in
  atomic valenz-charges read in
  non local Contribution for L=           2  read in
    real space projection operators read in
  non local Contribution for L=           2  read in
    real space projection operators read in
  non local Contribution for L=           0  read in
    real space projection operators read in
  non local Contribution for L=           0  read in
    real space projection operators read in
  non local Contribution for L=           1  read in
    real space projection operators read in
  non local Contribution for L=           1  read in
    real space projection operators read in
    PAW grid and wavefunctions read in
 
   number of l-projection  operators is LMAX  =           6
   number of lm-projection operators is LMMAX =          18
 
 POTCAR:    PAW_PBE I 08Apr2002                   
   VRHFIN =I : s2p5                                                             
   LEXCH  = PE                                                                  
   EATOM  =   315.8678 eV,   23.2156 Ry                                         
                                                                                
   TITEL  = PAW_PBE I 08Apr2002                                                 
   LULTRA =        F    use ultrasoft PP ?                                      
   IUNSCR =        1    unscreen: 0-lin 1-nonlin 2-no                           
   RPACOR =    2.200    partial core radius                                     
   POMASS =  126.904; ZVAL   =    7.000    mass and valenz                      
   RCORE  =    2.300    outmost cutoff radius                                   
   RWIGS  =    2.810; RWIGS  =    1.487    wigner-seitz radius (au A)           
   ENMAX  =  175.647; ENMIN  =  131.735 eV                                      
   ICORE  =        3    local potential                                         
   LCOR   =        T    correct aug charges                                     
   LPAW   =        T    paw PP                                                  
   EAUG   =  370.139                                                            
   DEXC   =    0.000                                                            
   RMAX   =    2.359    core radius for proj-oper                               
   RAUG   =    1.300    factor for augmentation sphere                          
   RDEP   =    2.392    radius for radial grids                                 
   RDEPT  =    2.170    core radius for aug-charge                              
                                                                                
   Atomic configuration                                                         
   13 entries                                                                   
     n  l   j            E        occ.                                          
     1  0  0.50    -32976.3739   2.0000                                         
     2  0  0.50     -5094.5933   2.0000                                         
     2  1  1.50     -4572.0131   6.0000                                         
     3  0  0.50     -1028.2813   2.0000                                         
     3  1  1.50      -859.0250   6.0000                                         
     3  2  2.50      -605.7620  10.0000                                         
     4  0  0.50      -180.5540   2.0000                                         
     4  1  1.50      -127.5306   6.0000                                         
     4  2  2.50       -50.2720  10.0000                                         
     5  0  0.50       -17.4058   2.0000                                         
     5  1  0.50        -7.0851   5.0000                                         
     5  2  1.50        -7.0750   0.0000                                         
     4  3  2.50        -7.0750   0.0000                                         
   Description                                                                  
     l       E           TYP  RCUT    TYP  RCUT                                 
     0    -17.4058016     23  2.300                                             
     0    -18.7663842     23  2.300                                             
     1     -7.0850686     23  2.300                                             
     1     -4.2150896     23  2.300                                             
     2     -7.0750295     23  2.300                                             
     3     -1.3605826     23  2.300                                             
  local pseudopotential read in
  partial core-charges read in
  partial kinetic energy density read in
  atomic valenz-charges read in
  non local Contribution for L=           0  read in
    real space projection operators read in
  non local Contribution for L=           0  read in
    real space projection operators read in
  non local Contribution for L=           1  read in
    real space projection operators read in
  non local Contribution for L=           1  read in
    real space projection operators read in
  non local Contribution for L=           2  read in
    real space projection operators read in
    PAW grid and wavefunctions read in
 
   number of l-projection  operators is LMAX  =           5
   number of lm-projection operators is LMMAX =          13
 
  PAW_PBE In_d 06Sep2000                :
 energy of atom  1       EATOM=-1576.8302
 kinetic energy error for atom=    0.0029 (will be added to EATOM!!)
  PAW_PBE I 08Apr2002                   :
 energy of atom  2       EATOM= -315.8678
 kinetic energy error for atom=    0.0009 (will be added to EATOM!!)
 
 
 POSCAR: In2 I2                                  
  positions in direct lattice
  No initial velocities read in
 exchange correlation table for  LEXCH =        8
   RHO(1)=    0.500       N(1)  =     2000
   RHO(2)=  100.500       N(2)  =     4000
 


--------------------------------------------------------------------------------------------------------


 ion  position               nearest neighbor table
   1  0.603  0.603  0.750-   3 3.22   4 3.47   4 3.47   4 3.47   4 3.47   2 3.59   2 3.59
   2  0.397  0.397  0.250-   4 3.22   3 3.47   3 3.47   3 3.47   3 3.47   1 3.59   1 3.59
   3  0.854  0.854  0.750-   1 3.22   2 3.47   2 3.47   2 3.47   2 3.47
   4  0.146  0.146  0.250-   2 3.22   1 3.47   1 3.47   1 3.47   1 3.47
 
  LATTYP: Found a base centered orthorhombic cell.
 ALAT       =     4.8602433554
 B/A-ratio  =     2.6470409334
 C/A-ratio  =     0.9945255073
  
  Lattice vectors:
  
 A1 = (   2.4301216777,   6.4326315541,   0.0000000000)
 A2 = (   2.4301216777,  -6.4326315541,   0.0000000000)
 A3 = (   0.0000000000,   0.0000000000,  -4.8336359887)


Analysis of symmetry for initial positions (statically):
=====================================================================
 Subroutine PRICEL returns:
 Original cell was already a primitive cell.
 

 Routine SETGRP: Setting up the symmetry group for a 
 base centered orthorhombic supercell.


 Subroutine GETGRP returns: Found  2 space group operations
 (whereof  1 operations were pure point group operations)
 out of a pool of  8 trial point group operations.


The static configuration has the point symmetry C_1 .
 The point group associated with its full space group is S_2 .


Analysis of symmetry for dynamics (positions and initial velocities):
=====================================================================
 Subroutine PRICEL returns:
 Original cell was already a primitive cell.
 

 Routine SETGRP: Setting up the symmetry group for a 
 base centered orthorhombic supercell.


 Subroutine GETGRP returns: Found  2 space group operations
 (whereof  1 operations were pure point group operations)
 out of a pool of  8 trial point group operations.


The dynamic configuration has the point symmetry C_1 .
 The point group associated with its full space group is S_2 .


 Subroutine INISYM returns: Found  2 space group operations
 (whereof  1 operations are pure point group operations),
 and found     1 'primitive' translations

 
 
 KPOINTS: pymatgen with grid density = 3000 / numb

Automatic generation of k-mesh.
Space group operators:
 irot       det(A)        alpha          n_x          n_y          n_z        tau_x        tau_y        tau_z
    1     1.000000     0.000000     1.000000     0.000000     0.000000     0.000000     0.000000     0.000000
    2    -1.000000     0.000000     1.000000     0.000000     0.000000     0.000000    -0.000000    -1.000000
 
 Subroutine IBZKPT returns following result:
 ===========================================
 
 Found    388 irreducible k-points:
 
 Following reciprocal coordinates:
            Coordinates               Weight
  0.000000  0.000000  0.000000      1.000000
  0.125000  0.000000  0.000000      2.000000
  0.250000  0.000000  0.000000      2.000000
  0.375000  0.000000  0.000000      2.000000
  0.500000  0.000000  0.000000      1.000000
  0.000000  0.125000  0.000000      2.000000
  0.125000  0.125000  0.000000      2.000000
  0.250000  0.125000  0.000000      2.000000
  0.375000  0.125000  0.000000      2.000000
  0.500000  0.125000  0.000000      2.000000
 -0.375000  0.125000  0.000000      2.000000
 -0.250000  0.125000  0.000000      2.000000
 -0.125000  0.125000  0.000000      2.000000
  0.000000  0.250000  0.000000      2.000000
  0.125000  0.250000  0.000000      2.000000
  0.250000  0.250000  0.000000      2.000000
  0.375000  0.250000  0.000000      2.000000
  0.500000  0.250000  0.000000      2.000000
 -0.375000  0.250000  0.000000      2.000000
 -0.250000  0.250000  0.000000      2.000000
 -0.125000  0.250000  0.000000      2.000000
  0.000000  0.375000  0.000000      2.000000
  0.125000  0.375000  0.000000      2.000000
  0.250000  0.375000  0.000000      2.000000
  0.375000  0.375000  0.000000      2.000000
  0.500000  0.375000  0.000000      2.000000
 -0.375000  0.375000  0.000000      2.000000
 -0.250000  0.375000  0.000000      2.000000
 -0.125000  0.375000  0.000000      2.000000
  0.000000  0.500000  0.000000      1.000000
  0.125000  0.500000  0.000000      2.000000
  0.250000  0.500000  0.000000      2.000000
  0.375000  0.500000  0.000000      2.000000
  0.500000  0.500000  0.000000      1.000000
  0.000000  0.000000  0.083333      2.000000
  0.125000  0.000000  0.083333      2.000000
  0.250000  0.000000  0.083333      2.000000
  0.375000  0.000000  0.083333      2.000000
  0.500000  0.000000  0.083333      2.000000
 -0.375000 -0.000000  0.083333      2.000000
 -0.250000 -0.000000  0.083333      2.000000
 -0.125000 -0.000000  0.083333      2.000000
  0.000000  0.125000  0.083333      2.000000
  0.125000  0.125000  0.083333      2.000000
  0.250000  0.125000  0.083333      2.000000
  0.375000  0.125000  0.083333      2.000000
  0.500000  0.125000  0.083333      2.000000
 -0.375000  0.125000  0.083333      2.000000
 -0.250000  0.125000  0.083333      2.000000
 -0.125000  0.125000  0.083333      2.000000
  0.000000  0.250000  0.083333      2.000000
  0.125000  0.250000  0.083333      2.000000
  0.250000  0.250000  0.083333      2.000000
  0.375000  0.250000  0.083333      2.000000
  0.500000  0.250000  0.083333      2.000000
 -0.375000  0.250000  0.083333      2.000000
 -0.250000  0.250000  0.083333      2.000000
 -0.125000  0.250000  0.083333      2.000000
  0.000000  0.375000  0.083333      2.000000
  0.125000  0.375000  0.083333      2.000000
  0.250000  0.375000  0.083333      2.000000
  0.375000  0.375000  0.083333      2.000000
  0.500000  0.375000  0.083333      2.000000
 -0.375000  0.375000  0.083333      2.000000
 -0.250000  0.375000  0.083333      2.000000
 -0.125000  0.375000  0.083333      2.000000
  0.000000  0.500000  0.083333      2.000000
  0.125000  0.500000  0.083333      2.000000
  0.250000  0.500000  0.083333      2.000000
  0.375000  0.500000  0.083333      2.000000
  0.500000  0.500000  0.083333      2.000000
 -0.375000  0.500000  0.083333      2.000000
 -0.250000  0.500000  0.083333      2.000000
 -0.125000  0.500000  0.083333      2.000000
 -0.000000 -0.375000  0.083333      2.000000
  0.125000 -0.375000  0.083333      2.000000
  0.250000 -0.375000  0.083333      2.000000
  0.375000 -0.375000  0.083333      2.000000
  0.500000 -0.375000  0.083333      2.000000
 -0.375000 -0.375000  0.083333      2.000000
 -0.250000 -0.375000  0.083333      2.000000
 -0.125000 -0.375000  0.083333      2.000000
 -0.000000 -0.250000  0.083333      2.000000
  0.125000 -0.250000  0.083333      2.000000
  0.250000 -0.250000  0.083333      2.000000
  0.375000 -0.250000  0.083333      2.000000
  0.500000 -0.250000  0.083333      2.000000
 -0.375000 -0.250000  0.083333      2.000000
 -0.250000 -0.250000  0.083333      2.000000
 -0.125000 -0.250000  0.083333      2.000000
 -0.000000 -0.125000  0.083333      2.000000
  0.125000 -0.125000  0.083333      2.000000
  0.250000 -0.125000  0.083333      2.000000
  0.375000 -0.125000  0.083333      2.000000
  0.500000 -0.125000  0.083333      2.000000
 -0.375000 -0.125000  0.083333      2.000000
 -0.250000 -0.125000  0.083333      2.000000
 -0.125000 -0.125000  0.083333      2.000000
  0.000000  0.000000  0.166667      2.000000
  0.125000  0.000000  0.166667      2.000000
  0.250000  0.000000  0.166667      2.000000
  0.375000  0.000000  0.166667      2.000000
  0.500000  0.000000  0.166667      2.000000
 -0.375000 -0.000000  0.166667      2.000000
 -0.250000 -0.000000  0.166667      2.000000
 -0.125000 -0.000000  0.166667      2.000000
  0.000000  0.125000  0.166667      2.000000
  0.125000  0.125000  0.166667      2.000000
  0.250000  0.125000  0.166667      2.000000
  0.375000  0.125000  0.166667      2.000000
  0.500000  0.125000  0.166667      2.000000
 -0.375000  0.125000  0.166667      2.000000
 -0.250000  0.125000  0.166667      2.000000
 -0.125000  0.125000  0.166667      2.000000
  0.000000  0.250000  0.166667      2.000000
  0.125000  0.250000  0.166667      2.000000
  0.250000  0.250000  0.166667      2.000000
  0.375000  0.250000  0.166667      2.000000
  0.500000  0.250000  0.166667      2.000000
 -0.375000  0.250000  0.166667      2.000000
 -0.250000  0.250000  0.166667      2.000000
 -0.125000  0.250000  0.166667      2.000000
  0.000000  0.375000  0.166667      2.000000
  0.125000  0.375000  0.166667      2.000000
  0.250000  0.375000  0.166667      2.000000
  0.375000  0.375000  0.166667      2.000000
  0.500000  0.375000  0.166667      2.000000
 -0.375000  0.375000  0.166667      2.000000
 -0.250000  0.375000  0.166667      2.000000
 -0.125000  0.375000  0.166667      2.000000
  0.000000  0.500000  0.166667      2.000000
  0.125000  0.500000  0.166667      2.000000
  0.250000  0.500000  0.166667      2.000000
  0.375000  0.500000  0.166667      2.000000
  0.500000  0.500000  0.166667      2.000000
 -0.375000  0.500000  0.166667      2.000000
 -0.250000  0.500000  0.166667      2.000000
 -0.125000  0.500000  0.166667      2.000000
 -0.000000 -0.375000  0.166667      2.000000
  0.125000 -0.375000  0.166667      2.000000
  0.250000 -0.375000  0.166667      2.000000
  0.375000 -0.375000  0.166667      2.000000
  0.500000 -0.375000  0.166667      2.000000
 -0.375000 -0.375000  0.166667      2.000000
 -0.250000 -0.375000  0.166667      2.000000
 -0.125000 -0.375000  0.166667      2.000000
 -0.000000 -0.250000  0.166667      2.000000
  0.125000 -0.250000  0.166667      2.000000
  0.250000 -0.250000  0.166667      2.000000
  0.375000 -0.250000  0.166667      2.000000
  0.500000 -0.250000  0.166667      2.000000
 -0.375000 -0.250000  0.166667      2.000000
 -0.250000 -0.250000  0.166667      2.000000
 -0.125000 -0.250000  0.166667      2.000000
 -0.000000 -0.125000  0.166667      2.000000
  0.125000 -0.125000  0.166667      2.000000
  0.250000 -0.125000  0.166667      2.000000
  0.375000 -0.125000  0.166667      2.000000
  0.500000 -0.125000  0.166667      2.000000
 -0.375000 -0.125000  0.166667      2.000000
 -0.250000 -0.125000  0.166667      2.000000
 -0.125000 -0.125000  0.166667      2.000000
  0.000000  0.000000  0.250000      2.000000
  0.125000  0.000000  0.250000      2.000000
  0.250000  0.000000  0.250000      2.000000
  0.375000  0.000000  0.250000      2.000000
  0.500000  0.000000  0.250000      2.000000
 -0.375000 -0.000000  0.250000      2.000000
 -0.250000 -0.000000  0.250000      2.000000
 -0.125000 -0.000000  0.250000      2.000000
  0.000000  0.125000  0.250000      2.000000
  0.125000  0.125000  0.250000      2.000000
  0.250000  0.125000  0.250000      2.000000
  0.375000  0.125000  0.250000      2.000000
  0.500000  0.125000  0.250000      2.000000
 -0.375000  0.125000  0.250000      2.000000
 -0.250000  0.125000  0.250000      2.000000
 -0.125000  0.125000  0.250000      2.000000
  0.000000  0.250000  0.250000      2.000000
  0.125000  0.250000  0.250000      2.000000
  0.250000  0.250000  0.250000      2.000000
  0.375000  0.250000  0.250000      2.000000
  0.500000  0.250000  0.250000      2.000000
 -0.375000  0.250000  0.250000      2.000000
 -0.250000  0.250000  0.250000      2.000000
 -0.125000  0.250000  0.250000      2.000000
  0.000000  0.375000  0.250000      2.000000
  0.125000  0.375000  0.250000      2.000000
  0.250000  0.375000  0.250000      2.000000
  0.375000  0.375000  0.250000      2.000000
  0.500000  0.375000  0.250000      2.000000
 -0.375000  0.375000  0.250000      2.000000
 -0.250000  0.375000  0.250000      2.000000
 -0.125000  0.375000  0.250000      2.000000
  0.000000  0.500000  0.250000      2.000000
  0.125000  0.500000  0.250000      2.000000
  0.250000  0.500000  0.250000      2.000000
  0.375000  0.500000  0.250000      2.000000
  0.500000  0.500000  0.250000      2.000000
 -0.375000  0.500000  0.250000      2.000000
 -0.250000  0.500000  0.250000      2.000000
 -0.125000  0.500000  0.250000      2.000000
 -0.000000 -0.375000  0.250000      2.000000
  0.125000 -0.375000  0.250000      2.000000
  0.250000 -0.375000  0.250000      2.000000
  0.375000 -0.375000  0.250000      2.000000
  0.500000 -0.375000  0.250000      2.000000
 -0.375000 -0.375000  0.250000      2.000000
 -0.250000 -0.375000  0.250000      2.000000
 -0.125000 -0.375000  0.250000      2.000000
 -0.000000 -0.250000  0.250000      2.000000
  0.125000 -0.250000  0.250000      2.000000
  0.250000 -0.250000  0.250000      2.000000
  0.375000 -0.250000  0.250000      2.000000
  0.500000 -0.250000  0.250000      2.000000
 -0.375000 -0.250000  0.250000      2.000000
 -0.250000 -0.250000  0.250000      2.000000
 -0.125000 -0.250000  0.250000      2.000000
 -0.000000 -0.125000  0.250000      2.000000
  0.125000 -0.125000  0.250000      2.000000
  0.250000 -0.125000  0.250000      2.000000
  0.375000 -0.125000  0.250000      2.000000
  0.500000 -0.125000  0.250000      2.000000
 -0.375000 -0.125000  0.250000      2.000000
 -0.250000 -0.125000  0.250000      2.000000
 -0.125000 -0.125000  0.250000      2.000000
  0.000000  0.000000  0.333333      2.000000
  0.125000  0.000000  0.333333      2.000000
  0.250000  0.000000  0.333333      2.000000
  0.375000  0.000000  0.333333      2.000000
  0.500000  0.000000  0.333333      2.000000
 -0.375000 -0.000000  0.333333      2.000000
 -0.250000 -0.000000  0.333333      2.000000
 -0.125000 -0.000000  0.333333      2.000000
  0.000000  0.125000  0.333333      2.000000
  0.125000  0.125000  0.333333      2.000000
  0.250000  0.125000  0.333333      2.000000
  0.375000  0.125000  0.333333      2.000000
  0.500000  0.125000  0.333333      2.000000
 -0.375000  0.125000  0.333333      2.000000
 -0.250000  0.125000  0.333333      2.000000
 -0.125000  0.125000  0.333333      2.000000
  0.000000  0.250000  0.333333      2.000000
  0.125000  0.250000  0.333333      2.000000
  0.250000  0.250000  0.333333      2.000000
  0.375000  0.250000  0.333333      2.000000
  0.500000  0.250000  0.333333      2.000000
 -0.375000  0.250000  0.333333      2.000000
 -0.250000  0.250000  0.333333      2.000000
 -0.125000  0.250000  0.333333      2.000000
  0.000000  0.375000  0.333333      2.000000
  0.125000  0.375000  0.333333      2.000000
  0.250000  0.375000  0.333333      2.000000
  0.375000  0.375000  0.333333      2.000000
  0.500000  0.375000  0.333333      2.000000
 -0.375000  0.375000  0.333333      2.000000
 -0.250000  0.375000  0.333333      2.000000
 -0.125000  0.375000  0.333333      2.000000
  0.000000  0.500000  0.333333      2.000000
  0.125000  0.500000  0.333333      2.000000
  0.250000  0.500000  0.333333      2.000000
  0.375000  0.500000  0.333333      2.000000
  0.500000  0.500000  0.333333      2.000000
 -0.375000  0.500000  0.333333      2.000000
 -0.250000  0.500000  0.333333      2.000000
 -0.125000  0.500000  0.333333      2.000000
 -0.000000 -0.375000  0.333333      2.000000
  0.125000 -0.375000  0.333333      2.000000
  0.250000 -0.375000  0.333333      2.000000
  0.375000 -0.375000  0.333333      2.000000
  0.500000 -0.375000  0.333333      2.000000
 -0.375000 -0.375000  0.333333      2.000000
 -0.250000 -0.375000  0.333333      2.000000
 -0.125000 -0.375000  0.333333      2.000000
 -0.000000 -0.250000  0.333333      2.000000
  0.125000 -0.250000  0.333333      2.000000
  0.250000 -0.250000  0.333333      2.000000
  0.375000 -0.250000  0.333333      2.000000
  0.500000 -0.250000  0.333333      2.000000
 -0.375000 -0.250000  0.333333      2.000000
 -0.250000 -0.250000  0.333333      2.000000
 -0.125000 -0.250000  0.333333      2.000000
 -0.000000 -0.125000  0.333333      2.000000
  0.125000 -0.125000  0.333333      2.000000
  0.250000 -0.125000  0.333333      2.000000
  0.375000 -0.125000  0.333333      2.000000
  0.500000 -0.125000  0.333333      2.000000
 -0.375000 -0.125000  0.333333      2.000000
 -0.250000 -0.125000  0.333333      2.000000
 -0.125000 -0.125000  0.333333      2.000000
  0.000000  0.000000  0.416667      2.000000
  0.125000  0.000000  0.416667      2.000000
  0.250000  0.000000  0.416667      2.000000
  0.375000  0.000000  0.416667      2.000000
  0.500000  0.000000  0.416667      2.000000
 -0.375000 -0.000000  0.416667      2.000000
 -0.250000 -0.000000  0.416667      2.000000
 -0.125000 -0.000000  0.416667      2.000000
  0.000000  0.125000  0.416667      2.000000
  0.125000  0.125000  0.416667      2.000000
  0.250000  0.125000  0.416667      2.000000
  0.375000  0.125000  0.416667      2.000000
  0.500000  0.125000  0.416667      2.000000
 -0.375000  0.125000  0.416667      2.000000
 -0.250000  0.125000  0.416667      2.000000
 -0.125000  0.125000  0.416667      2.000000
  0.000000  0.250000  0.416667      2.000000
  0.125000  0.250000  0.416667      2.000000
  0.250000  0.250000  0.416667      2.000000
  0.375000  0.250000  0.416667      2.000000
  0.500000  0.250000  0.416667      2.000000
 -0.375000  0.250000  0.416667      2.000000
 -0.250000  0.250000  0.416667      2.000000
 -0.125000  0.250000  0.416667      2.000000
  0.000000  0.375000  0.416667      2.000000
  0.125000  0.375000  0.416667      2.000000
  0.250000  0.375000  0.416667      2.000000
  0.375000  0.375000  0.416667      2.000000
  0.500000  0.375000  0.416667      2.000000
 -0.375000  0.375000  0.416667      2.000000
 -0.250000  0.375000  0.416667      2.000000
 -0.125000  0.375000  0.416667      2.000000
  0.000000  0.500000  0.416667      2.000000
  0.125000  0.500000  0.416667      2.000000
  0.250000  0.500000  0.416667      2.000000
  0.375000  0.500000  0.416667      2.000000
  0.500000  0.500000  0.416667      2.000000
 -0.375000  0.500000  0.416667      2.000000
 -0.250000  0.500000  0.416667      2.000000
 -0.125000  0.500000  0.416667      2.000000
 -0.000000 -0.375000  0.416667      2.000000
  0.125000 -0.375000  0.416667      2.000000
  0.250000 -0.375000  0.416667      2.000000
  0.375000 -0.375000  0.416667      2.000000
  0.500000 -0.375000  0.416667      2.000000
 -0.375000 -0.375000  0.416667      2.000000
 -0.250000 -0.375000  0.416667      2.000000
 -0.125000 -0.375000  0.416667      2.000000
 -0.000000 -0.250000  0.416667      2.000000
  0.125000 -0.250000  0.416667      2.000000
  0.250000 -0.250000  0.416667      2.000000
  0.375000 -0.250000  0.416667      2.000000
  0.500000 -0.250000  0.416667      2.000000
 -0.375000 -0.250000  0.416667      2.000000
 -0.250000 -0.250000  0.416667      2.000000
 -0.125000 -0.250000  0.416667      2.000000
 -0.000000 -0.125000  0.416667      2.000000
  0.125000 -0.125000  0.416667      2.000000
  0.250000 -0.125000  0.416667      2.000000
  0.375000 -0.125000  0.416667      2.000000
  0.500000 -0.125000  0.416667      2.000000
 -0.375000 -0.125000  0.416667      2.000000
 -0.250000 -0.125000  0.416667      2.000000
 -0.125000 -0.125000  0.416667      2.000000
  0.000000  0.000000  0.500000      1.000000
  0.125000  0.000000  0.500000      2.000000
  0.250000  0.000000  0.500000      2.000000
  0.375000  0.000000  0.500000      2.000000
  0.500000  0.000000  0.500000      1.000000
  0.000000  0.125000  0.500000      2.000000
  0.125000  0.125000  0.500000      2.000000
  0.250000  0.125000  0.500000      2.000000
  0.375000  0.125000  0.500000      2.000000
  0.500000  0.125000  0.500000      2.000000
 -0.375000  0.125000  0.500000      2.000000
 -0.250000  0.125000  0.500000      2.000000
 -0.125000  0.125000  0.500000      2.000000
  0.000000  0.250000  0.500000      2.000000
  0.125000  0.250000  0.500000      2.000000
  0.250000  0.250000  0.500000      2.000000
  0.375000  0.250000  0.500000      2.000000
  0.500000  0.250000  0.500000      2.000000
 -0.375000  0.250000  0.500000      2.000000
 -0.250000  0.250000  0.500000      2.000000
 -0.125000  0.250000  0.500000      2.000000
  0.000000  0.375000  0.500000      2.000000
  0.125000  0.375000  0.500000      2.000000
  0.250000  0.375000  0.500000      2.000000
  0.375000  0.375000  0.500000      2.000000
  0.500000  0.375000  0.500000      2.000000
 -0.375000  0.375000  0.500000      2.000000
 -0.250000  0.375000  0.500000      2.000000
 -0.125000  0.375000  0.500000      2.000000
  0.000000  0.500000  0.500000      1.000000
  0.125000  0.500000  0.500000      2.000000
  0.250000  0.500000  0.500000      2.000000
  0.375000  0.500000  0.500000      2.000000
  0.500000  0.500000  0.500000      1.000000
 
 Following cartesian coordinates:
            Coordinates               Weight
  0.000000  0.000000  0.000000      1.000000
  0.025719  0.009716  0.000000      2.000000
  0.051438  0.019432  0.000000      2.000000
  0.077157  0.029148  0.000000      2.000000
  0.102876  0.038864  0.000000      1.000000
 -0.025719  0.009716  0.000000      2.000000
  0.000000  0.019432  0.000000      2.000000
  0.025719  0.029148  0.000000      2.000000
  0.051438  0.038864  0.000000      2.000000
  0.077157  0.048580  0.000000      2.000000
 -0.102876 -0.019432  0.000000      2.000000
 -0.077157 -0.009716  0.000000      2.000000
 -0.051438  0.000000  0.000000      2.000000
 -0.051438  0.019432  0.000000      2.000000
 -0.025719  0.029148  0.000000      2.000000
  0.000000  0.038864  0.000000      2.000000
  0.025719  0.048580  0.000000      2.000000
  0.051438  0.058297  0.000000      2.000000
 -0.128594 -0.009716  0.000000      2.000000
 -0.102876  0.000000  0.000000      2.000000
 -0.077157  0.009716  0.000000      2.000000
 -0.077157  0.029148  0.000000      2.000000
 -0.051438  0.038864  0.000000      2.000000
 -0.025719  0.048580  0.000000      2.000000
  0.000000  0.058297  0.000000      2.000000
  0.025719  0.068013  0.000000      2.000000
 -0.154313  0.000000  0.000000      2.000000
 -0.128594  0.009716  0.000000      2.000000
 -0.102876  0.019432  0.000000      2.000000
 -0.102876  0.038864  0.000000      1.000000
 -0.077157  0.048580  0.000000      2.000000
 -0.051438  0.058297  0.000000      2.000000
 -0.025719  0.068013  0.000000      2.000000
  0.000000  0.077729  0.000000      1.000000
  0.000000  0.000000  0.017240      2.000000
  0.025719  0.009716  0.017240      2.000000
  0.051438  0.019432  0.017240      2.000000
  0.077157  0.029148  0.017240      2.000000
  0.102876  0.038864  0.017240      2.000000
 -0.077157 -0.029148  0.017240      2.000000
 -0.051438 -0.019432  0.017240      2.000000
 -0.025719 -0.009716  0.017240      2.000000
 -0.025719  0.009716  0.017240      2.000000
  0.000000  0.019432  0.017240      2.000000
  0.025719  0.029148  0.017240      2.000000
  0.051438  0.038864  0.017240      2.000000
  0.077157  0.048580  0.017240      2.000000
 -0.102876 -0.019432  0.017240      2.000000
 -0.077157 -0.009716  0.017240      2.000000
 -0.051438  0.000000  0.017240      2.000000
 -0.051438  0.019432  0.017240      2.000000
 -0.025719  0.029148  0.017240      2.000000
  0.000000  0.038864  0.017240      2.000000
  0.025719  0.048580  0.017240      2.000000
  0.051438  0.058297  0.017240      2.000000
 -0.128594 -0.009716  0.017240      2.000000
 -0.102876  0.000000  0.017240      2.000000
 -0.077157  0.009716  0.017240      2.000000
 -0.077157  0.029148  0.017240      2.000000
 -0.051438  0.038864  0.017240      2.000000
 -0.025719  0.048580  0.017240      2.000000
  0.000000  0.058297  0.017240      2.000000
  0.025719  0.068013  0.017240      2.000000
 -0.154313  0.000000  0.017240      2.000000
 -0.128594  0.009716  0.017240      2.000000
 -0.102876  0.019432  0.017240      2.000000
 -0.102876  0.038864  0.017240      2.000000
 -0.077157  0.048580  0.017240      2.000000
 -0.051438  0.058297  0.017240      2.000000
 -0.025719  0.068013  0.017240      2.000000
  0.000000  0.077729  0.017240      2.000000
 -0.180032  0.009716  0.017240      2.000000
 -0.154313  0.019432  0.017240      2.000000
 -0.128594  0.029148  0.017240      2.000000
  0.077157 -0.029148  0.017240      2.000000
  0.102876 -0.019432  0.017240      2.000000
  0.128594 -0.009716  0.017240      2.000000
  0.154313 -0.000000  0.017240      2.000000
  0.180032  0.009716  0.017240      2.000000
  0.000000 -0.058297  0.017240      2.000000
  0.025719 -0.048580  0.017240      2.000000
  0.051438 -0.038864  0.017240      2.000000
  0.051438 -0.019432  0.017240      2.000000
  0.077157 -0.009716  0.017240      2.000000
  0.102876  0.000000  0.017240      2.000000
  0.128594  0.009716  0.017240      2.000000
  0.154313  0.019432  0.017240      2.000000
 -0.025719 -0.048580  0.017240      2.000000
  0.000000 -0.038864  0.017240      2.000000
  0.025719 -0.029148  0.017240      2.000000
  0.025719 -0.009716  0.017240      2.000000
  0.051438  0.000000  0.017240      2.000000
  0.077157  0.009716  0.017240      2.000000
  0.102876  0.019432  0.017240      2.000000
  0.128594  0.029148  0.017240      2.000000
 -0.051438 -0.038864  0.017240      2.000000
 -0.025719 -0.029148  0.017240      2.000000
  0.000000 -0.019432  0.017240      2.000000
  0.000000  0.000000  0.034481      2.000000
  0.025719  0.009716  0.034481      2.000000
  0.051438  0.019432  0.034481      2.000000
  0.077157  0.029148  0.034481      2.000000
  0.102876  0.038864  0.034481      2.000000
 -0.077157 -0.029148  0.034481      2.000000
 -0.051438 -0.019432  0.034481      2.000000
 -0.025719 -0.009716  0.034481      2.000000
 -0.025719  0.009716  0.034481      2.000000
  0.000000  0.019432  0.034481      2.000000
  0.025719  0.029148  0.034481      2.000000
  0.051438  0.038864  0.034481      2.000000
  0.077157  0.048580  0.034481      2.000000
 -0.102876 -0.019432  0.034481      2.000000
 -0.077157 -0.009716  0.034481      2.000000
 -0.051438  0.000000  0.034481      2.000000
 -0.051438  0.019432  0.034481      2.000000
 -0.025719  0.029148  0.034481      2.000000
  0.000000  0.038864  0.034481      2.000000
  0.025719  0.048580  0.034481      2.000000
  0.051438  0.058297  0.034481      2.000000
 -0.128594 -0.009716  0.034481      2.000000
 -0.102876  0.000000  0.034481      2.000000
 -0.077157  0.009716  0.034481      2.000000
 -0.077157  0.029148  0.034481      2.000000
 -0.051438  0.038864  0.034481      2.000000
 -0.025719  0.048580  0.034481      2.000000
  0.000000  0.058297  0.034481      2.000000
  0.025719  0.068013  0.034481      2.000000
 -0.154313  0.000000  0.034481      2.000000
 -0.128594  0.009716  0.034481      2.000000
 -0.102876  0.019432  0.034481      2.000000
 -0.102876  0.038864  0.034481      2.000000
 -0.077157  0.048580  0.034481      2.000000
 -0.051438  0.058297  0.034481      2.000000
 -0.025719  0.068013  0.034481      2.000000
  0.000000  0.077729  0.034481      2.000000
 -0.180032  0.009716  0.034481      2.000000
 -0.154313  0.019432  0.034481      2.000000
 -0.128594  0.029148  0.034481      2.000000
  0.077157 -0.029148  0.034481      2.000000
  0.102876 -0.019432  0.034481      2.000000
  0.128594 -0.009716  0.034481      2.000000
  0.154313 -0.000000  0.034481      2.000000
  0.180032  0.009716  0.034481      2.000000
  0.000000 -0.058297  0.034481      2.000000
  0.025719 -0.048580  0.034481      2.000000
  0.051438 -0.038864  0.034481      2.000000
  0.051438 -0.019432  0.034481      2.000000
  0.077157 -0.009716  0.034481      2.000000
  0.102876  0.000000  0.034481      2.000000
  0.128594  0.009716  0.034481      2.000000
  0.154313  0.019432  0.034481      2.000000
 -0.025719 -0.048580  0.034481      2.000000
  0.000000 -0.038864  0.034481      2.000000
  0.025719 -0.029148  0.034481      2.000000
  0.025719 -0.009716  0.034481      2.000000
  0.051438  0.000000  0.034481      2.000000
  0.077157  0.009716  0.034481      2.000000
  0.102876  0.019432  0.034481      2.000000
  0.128594  0.029148  0.034481      2.000000
 -0.051438 -0.038864  0.034481      2.000000
 -0.025719 -0.029148  0.034481      2.000000
  0.000000 -0.019432  0.034481      2.000000
  0.000000  0.000000  0.051721      2.000000
  0.025719  0.009716  0.051721      2.000000
  0.051438  0.019432  0.051721      2.000000
  0.077157  0.029148  0.051721      2.000000
  0.102876  0.038864  0.051721      2.000000
 -0.077157 -0.029148  0.051721      2.000000
 -0.051438 -0.019432  0.051721      2.000000
 -0.025719 -0.009716  0.051721      2.000000
 -0.025719  0.009716  0.051721      2.000000
  0.000000  0.019432  0.051721      2.000000
  0.025719  0.029148  0.051721      2.000000
  0.051438  0.038864  0.051721      2.000000
  0.077157  0.048580  0.051721      2.000000
 -0.102876 -0.019432  0.051721      2.000000
 -0.077157 -0.009716  0.051721      2.000000
 -0.051438  0.000000  0.051721      2.000000
 -0.051438  0.019432  0.051721      2.000000
 -0.025719  0.029148  0.051721      2.000000
  0.000000  0.038864  0.051721      2.000000
  0.025719  0.048580  0.051721      2.000000
  0.051438  0.058297  0.051721      2.000000
 -0.128594 -0.009716  0.051721      2.000000
 -0.102876  0.000000  0.051721      2.000000
 -0.077157  0.009716  0.051721      2.000000
 -0.077157  0.029148  0.051721      2.000000
 -0.051438  0.038864  0.051721      2.000000
 -0.025719  0.048580  0.051721      2.000000
  0.000000  0.058297  0.051721      2.000000
  0.025719  0.068013  0.051721      2.000000
 -0.154313  0.000000  0.051721      2.000000
 -0.128594  0.009716  0.051721      2.000000
 -0.102876  0.019432  0.051721      2.000000
 -0.102876  0.038864  0.051721      2.000000
 -0.077157  0.048580  0.051721      2.000000
 -0.051438  0.058297  0.051721      2.000000
 -0.025719  0.068013  0.051721      2.000000
  0.000000  0.077729  0.051721      2.000000
 -0.180032  0.009716  0.051721      2.000000
 -0.154313  0.019432  0.051721      2.000000
 -0.128594  0.029148  0.051721      2.000000
  0.077157 -0.029148  0.051721      2.000000
  0.102876 -0.019432  0.051721      2.000000
  0.128594 -0.009716  0.051721      2.000000
  0.154313 -0.000000  0.051721      2.000000
  0.180032  0.009716  0.051721      2.000000
  0.000000 -0.058297  0.051721      2.000000
  0.025719 -0.048580  0.051721      2.000000
  0.051438 -0.038864  0.051721      2.000000
  0.051438 -0.019432  0.051721      2.000000
  0.077157 -0.009716  0.051721      2.000000
  0.102876  0.000000  0.051721      2.000000
  0.128594  0.009716  0.051721      2.000000
  0.154313  0.019432  0.051721      2.000000
 -0.025719 -0.048580  0.051721      2.000000
  0.000000 -0.038864  0.051721      2.000000
  0.025719 -0.029148  0.051721      2.000000
  0.025719 -0.009716  0.051721      2.000000
  0.051438  0.000000  0.051721      2.000000
  0.077157  0.009716  0.051721      2.000000
  0.102876  0.019432  0.051721      2.000000
  0.128594  0.029148  0.051721      2.000000
 -0.051438 -0.038864  0.051721      2.000000
 -0.025719 -0.029148  0.051721      2.000000
  0.000000 -0.019432  0.051721      2.000000
  0.000000  0.000000  0.068961      2.000000
  0.025719  0.009716  0.068961      2.000000
  0.051438  0.019432  0.068961      2.000000
  0.077157  0.029148  0.068961      2.000000
  0.102876  0.038864  0.068961      2.000000
 -0.077157 -0.029148  0.068961      2.000000
 -0.051438 -0.019432  0.068961      2.000000
 -0.025719 -0.009716  0.068961      2.000000
 -0.025719  0.009716  0.068961      2.000000
  0.000000  0.019432  0.068961      2.000000
  0.025719  0.029148  0.068961      2.000000
  0.051438  0.038864  0.068961      2.000000
  0.077157  0.048580  0.068961      2.000000
 -0.102876 -0.019432  0.068961      2.000000
 -0.077157 -0.009716  0.068961      2.000000
 -0.051438  0.000000  0.068961      2.000000
 -0.051438  0.019432  0.068961      2.000000
 -0.025719  0.029148  0.068961      2.000000
  0.000000  0.038864  0.068961      2.000000
  0.025719  0.048580  0.068961      2.000000
  0.051438  0.058297  0.068961      2.000000
 -0.128594 -0.009716  0.068961      2.000000
 -0.102876  0.000000  0.068961      2.000000
 -0.077157  0.009716  0.068961      2.000000
 -0.077157  0.029148  0.068961      2.000000
 -0.051438  0.038864  0.068961      2.000000
 -0.025719  0.048580  0.068961      2.000000
  0.000000  0.058297  0.068961      2.000000
  0.025719  0.068013  0.068961      2.000000
 -0.154313  0.000000  0.068961      2.000000
 -0.128594  0.009716  0.068961      2.000000
 -0.102876  0.019432  0.068961      2.000000
 -0.102876  0.038864  0.068961      2.000000
 -0.077157  0.048580  0.068961      2.000000
 -0.051438  0.058297  0.068961      2.000000
 -0.025719  0.068013  0.068961      2.000000
  0.000000  0.077729  0.068961      2.000000
 -0.180032  0.009716  0.068961      2.000000
 -0.154313  0.019432  0.068961      2.000000
 -0.128594  0.029148  0.068961      2.000000
  0.077157 -0.029148  0.068961      2.000000
  0.102876 -0.019432  0.068961      2.000000
  0.128594 -0.009716  0.068961      2.000000
  0.154313 -0.000000  0.068961      2.000000
  0.180032  0.009716  0.068961      2.000000
  0.000000 -0.058297  0.068961      2.000000
  0.025719 -0.048580  0.068961      2.000000
  0.051438 -0.038864  0.068961      2.000000
  0.051438 -0.019432  0.068961      2.000000
  0.077157 -0.009716  0.068961      2.000000
  0.102876  0.000000  0.068961      2.000000
  0.128594  0.009716  0.068961      2.000000
  0.154313  0.019432  0.068961      2.000000
 -0.025719 -0.048580  0.068961      2.000000
  0.000000 -0.038864  0.068961      2.000000
  0.025719 -0.029148  0.068961      2.000000
  0.025719 -0.009716  0.068961      2.000000
  0.051438  0.000000  0.068961      2.000000
  0.077157  0.009716  0.068961      2.000000
  0.102876  0.019432  0.068961      2.000000
  0.128594  0.029148  0.068961      2.000000
 -0.051438 -0.038864  0.068961      2.000000
 -0.025719 -0.029148  0.068961      2.000000
  0.000000 -0.019432  0.068961      2.000000
  0.000000  0.000000  0.086201      2.000000
  0.025719  0.009716  0.086201      2.000000
  0.051438  0.019432  0.086201      2.000000
  0.077157  0.029148  0.086201      2.000000
  0.102876  0.038864  0.086201      2.000000
 -0.077157 -0.029148  0.086201      2.000000
 -0.051438 -0.019432  0.086201      2.000000
 -0.025719 -0.009716  0.086201      2.000000
 -0.025719  0.009716  0.086201      2.000000
  0.000000  0.019432  0.086201      2.000000
  0.025719  0.029148  0.086201      2.000000
  0.051438  0.038864  0.086201      2.000000
  0.077157  0.048580  0.086201      2.000000
 -0.102876 -0.019432  0.086201      2.000000
 -0.077157 -0.009716  0.086201      2.000000
 -0.051438  0.000000  0.086201      2.000000
 -0.051438  0.019432  0.086201      2.000000
 -0.025719  0.029148  0.086201      2.000000
  0.000000  0.038864  0.086201      2.000000
  0.025719  0.048580  0.086201      2.000000
  0.051438  0.058297  0.086201      2.000000
 -0.128594 -0.009716  0.086201      2.000000
 -0.102876  0.000000  0.086201      2.000000
 -0.077157  0.009716  0.086201      2.000000
 -0.077157  0.029148  0.086201      2.000000
 -0.051438  0.038864  0.086201      2.000000
 -0.025719  0.048580  0.086201      2.000000
  0.000000  0.058297  0.086201      2.000000
  0.025719  0.068013  0.086201      2.000000
 -0.154313  0.000000  0.086201      2.000000
 -0.128594  0.009716  0.086201      2.000000
 -0.102876  0.019432  0.086201      2.000000
 -0.102876  0.038864  0.086201      2.000000
 -0.077157  0.048580  0.086201      2.000000
 -0.051438  0.058297  0.086201      2.000000
 -0.025719  0.068013  0.086201      2.000000
  0.000000  0.077729  0.086201      2.000000
 -0.180032  0.009716  0.086201      2.000000
 -0.154313  0.019432  0.086201      2.000000
 -0.128594  0.029148  0.086201      2.000000
  0.077157 -0.029148  0.086201      2.000000
  0.102876 -0.019432  0.086201      2.000000
  0.128594 -0.009716  0.086201      2.000000
  0.154313 -0.000000  0.086201      2.000000
  0.180032  0.009716  0.086201      2.000000
  0.000000 -0.058297  0.086201      2.000000
  0.025719 -0.048580  0.086201      2.000000
  0.051438 -0.038864  0.086201      2.000000
  0.051438 -0.019432  0.086201      2.000000
  0.077157 -0.009716  0.086201      2.000000
  0.102876  0.000000  0.086201      2.000000
  0.128594  0.009716  0.086201      2.000000
  0.154313  0.019432  0.086201      2.000000
 -0.025719 -0.048580  0.086201      2.000000
  0.000000 -0.038864  0.086201      2.000000
  0.025719 -0.029148  0.086201      2.000000
  0.025719 -0.009716  0.086201      2.000000
  0.051438  0.000000  0.086201      2.000000
  0.077157  0.009716  0.086201      2.000000
  0.102876  0.019432  0.086201      2.000000
  0.128594  0.029148  0.086201      2.000000
 -0.051438 -0.038864  0.086201      2.000000
 -0.025719 -0.029148  0.086201      2.000000
  0.000000 -0.019432  0.086201      2.000000
  0.000000  0.000000  0.103442      1.000000
  0.025719  0.009716  0.103442      2.000000
  0.051438  0.019432  0.103442      2.000000
  0.077157  0.029148  0.103442      2.000000
  0.102876  0.038864  0.103442      1.000000
 -0.025719  0.009716  0.103442      2.000000
  0.000000  0.019432  0.103442      2.000000
  0.025719  0.029148  0.103442      2.000000
  0.051438  0.038864  0.103442      2.000000
  0.077157  0.048580  0.103442      2.000000
 -0.102876 -0.019432  0.103442      2.000000
 -0.077157 -0.009716  0.103442      2.000000
 -0.051438  0.000000  0.103442      2.000000
 -0.051438  0.019432  0.103442      2.000000
 -0.025719  0.029148  0.103442      2.000000
  0.000000  0.038864  0.103442      2.000000
  0.025719  0.048580  0.103442      2.000000
  0.051438  0.058297  0.103442      2.000000
 -0.128594 -0.009716  0.103442      2.000000
 -0.102876  0.000000  0.103442      2.000000
 -0.077157  0.009716  0.103442      2.000000
 -0.077157  0.029148  0.103442      2.000000
 -0.051438  0.038864  0.103442      2.000000
 -0.025719  0.048580  0.103442      2.000000
  0.000000  0.058297  0.103442      2.000000
  0.025719  0.068013  0.103442      2.000000
 -0.154313  0.000000  0.103442      2.000000
 -0.128594  0.009716  0.103442      2.000000
 -0.102876  0.019432  0.103442      2.000000
 -0.102876  0.038864  0.103442      1.000000
 -0.077157  0.048580  0.103442      2.000000
 -0.051438  0.058297  0.103442      2.000000
 -0.025719  0.068013  0.103442      2.000000
  0.000000  0.077729  0.103442      1.000000
 
 
 Subroutine IBZKPT_HF returns following result:
 ==============================================
 
 Found    768 k-points in 1st BZ
 the following    768 k-points will be used (e.g. in the exchange kernel)
 Following reciprocal coordinates:   # in IRBZ
  0.000000  0.000000  0.000000    0.00130208   1 t-inv F
  0.125000  0.000000  0.000000    0.00130208   2 t-inv F
  0.250000  0.000000  0.000000    0.00130208   3 t-inv F
  0.375000  0.000000  0.000000    0.00130208   4 t-inv F
  0.500000  0.000000  0.000000    0.00130208   5 t-inv F
  0.000000  0.125000  0.000000    0.00130208   6 t-inv F
  0.125000  0.125000  0.000000    0.00130208   7 t-inv F
  0.250000  0.125000  0.000000    0.00130208   8 t-inv F
  0.375000  0.125000  0.000000    0.00130208   9 t-inv F
  0.500000  0.125000  0.000000    0.00130208  10 t-inv F
 -0.375000  0.125000  0.000000    0.00130208  11 t-inv F
 -0.250000  0.125000  0.000000    0.00130208  12 t-inv F
 -0.125000  0.125000  0.000000    0.00130208  13 t-inv F
  0.000000  0.250000  0.000000    0.00130208  14 t-inv F
  0.125000  0.250000  0.000000    0.00130208  15 t-inv F
  0.250000  0.250000  0.000000    0.00130208  16 t-inv F
  0.375000  0.250000  0.000000    0.00130208  17 t-inv F
  0.500000  0.250000  0.000000    0.00130208  18 t-inv F
 -0.375000  0.250000  0.000000    0.00130208  19 t-inv F
 -0.250000  0.250000  0.000000    0.00130208  20 t-inv F
 -0.125000  0.250000  0.000000    0.00130208  21 t-inv F
  0.000000  0.375000  0.000000    0.00130208  22 t-inv F
  0.125000  0.375000  0.000000    0.00130208  23 t-inv F
  0.250000  0.375000  0.000000    0.00130208  24 t-inv F
  0.375000  0.375000  0.000000    0.00130208  25 t-inv F
  0.500000  0.375000  0.000000    0.00130208  26 t-inv F
 -0.375000  0.375000  0.000000    0.00130208  27 t-inv F
 -0.250000  0.375000  0.000000    0.00130208  28 t-inv F
 -0.125000  0.375000  0.000000    0.00130208  29 t-inv F
  0.000000  0.500000  0.000000    0.00130208  30 t-inv F
  0.125000  0.500000  0.000000    0.00130208  31 t-inv F
  0.250000  0.500000  0.000000    0.00130208  32 t-inv F
  0.375000  0.500000  0.000000    0.00130208  33 t-inv F
  0.500000  0.500000  0.000000    0.00130208  34 t-inv F
  0.000000  0.000000  0.083333    0.00130208  35 t-inv F
  0.125000  0.000000  0.083333    0.00130208  36 t-inv F
  0.250000  0.000000  0.083333    0.00130208  37 t-inv F
  0.375000  0.000000  0.083333    0.00130208  38 t-inv F
  0.500000  0.000000  0.083333    0.00130208  39 t-inv F
 -0.375000 -0.000000  0.083333    0.00130208  40 t-inv F
 -0.250000 -0.000000  0.083333    0.00130208  41 t-inv F
 -0.125000 -0.000000  0.083333    0.00130208  42 t-inv F
  0.000000  0.125000  0.083333    0.00130208  43 t-inv F
  0.125000  0.125000  0.083333    0.00130208  44 t-inv F
  0.250000  0.125000  0.083333    0.00130208  45 t-inv F
  0.375000  0.125000  0.083333    0.00130208  46 t-inv F
  0.500000  0.125000  0.083333    0.00130208  47 t-inv F
 -0.375000  0.125000  0.083333    0.00130208  48 t-inv F
 -0.250000  0.125000  0.083333    0.00130208  49 t-inv F
 -0.125000  0.125000  0.083333    0.00130208  50 t-inv F
  0.000000  0.250000  0.083333    0.00130208  51 t-inv F
  0.125000  0.250000  0.083333    0.00130208  52 t-inv F
  0.250000  0.250000  0.083333    0.00130208  53 t-inv F
  0.375000  0.250000  0.083333    0.00130208  54 t-inv F
  0.500000  0.250000  0.083333    0.00130208  55 t-inv F
 -0.375000  0.250000  0.083333    0.00130208  56 t-inv F
 -0.250000  0.250000  0.083333    0.00130208  57 t-inv F
 -0.125000  0.250000  0.083333    0.00130208  58 t-inv F
  0.000000  0.375000  0.083333    0.00130208  59 t-inv F
  0.125000  0.375000  0.083333    0.00130208  60 t-inv F
  0.250000  0.375000  0.083333    0.00130208  61 t-inv F
  0.375000  0.375000  0.083333    0.00130208  62 t-inv F
  0.500000  0.375000  0.083333    0.00130208  63 t-inv F
 -0.375000  0.375000  0.083333    0.00130208  64 t-inv F
 -0.250000  0.375000  0.083333    0.00130208  65 t-inv F
 -0.125000  0.375000  0.083333    0.00130208  66 t-inv F
  0.000000  0.500000  0.083333    0.00130208  67 t-inv F
  0.125000  0.500000  0.083333    0.00130208  68 t-inv F
  0.250000  0.500000  0.083333    0.00130208  69 t-inv F
  0.375000  0.500000  0.083333    0.00130208  70 t-inv F
  0.500000  0.500000  0.083333    0.00130208  71 t-inv F
 -0.375000  0.500000  0.083333    0.00130208  72 t-inv F
 -0.250000  0.500000  0.083333    0.00130208  73 t-inv F
 -0.125000  0.500000  0.083333    0.00130208  74 t-inv F
 -0.000000 -0.375000  0.083333    0.00130208  75 t-inv F
  0.125000 -0.375000  0.083333    0.00130208  76 t-inv F
  0.250000 -0.375000  0.083333    0.00130208  77 t-inv F
  0.375000 -0.375000  0.083333    0.00130208  78 t-inv F
  0.500000 -0.375000  0.083333    0.00130208  79 t-inv F
 -0.375000 -0.375000  0.083333    0.00130208  80 t-inv F
 -0.250000 -0.375000  0.083333    0.00130208  81 t-inv F
 -0.125000 -0.375000  0.083333    0.00130208  82 t-inv F
 -0.000000 -0.250000  0.083333    0.00130208  83 t-inv F
  0.125000 -0.250000  0.083333    0.00130208  84 t-inv F
  0.250000 -0.250000  0.083333    0.00130208  85 t-inv F
  0.375000 -0.250000  0.083333    0.00130208  86 t-inv F
  0.500000 -0.250000  0.083333    0.00130208  87 t-inv F
 -0.375000 -0.250000  0.083333    0.00130208  88 t-inv F
 -0.250000 -0.250000  0.083333    0.00130208  89 t-inv F
 -0.125000 -0.250000  0.083333    0.00130208  90 t-inv F
 -0.000000 -0.125000  0.083333    0.00130208  91 t-inv F
  0.125000 -0.125000  0.083333    0.00130208  92 t-inv F
  0.250000 -0.125000  0.083333    0.00130208  93 t-inv F
  0.375000 -0.125000  0.083333    0.00130208  94 t-inv F
  0.500000 -0.125000  0.083333    0.00130208  95 t-inv F
 -0.375000 -0.125000  0.083333    0.00130208  96 t-inv F
 -0.250000 -0.125000  0.083333    0.00130208  97 t-inv F
 -0.125000 -0.125000  0.083333    0.00130208  98 t-inv F
  0.000000  0.000000  0.166667    0.00130208  99 t-inv F
  0.125000  0.000000  0.166667    0.00130208 100 t-inv F
  0.250000  0.000000  0.166667    0.00130208 101 t-inv F
  0.375000  0.000000  0.166667    0.00130208 102 t-inv F
  0.500000  0.000000  0.166667    0.00130208 103 t-inv F
 -0.375000 -0.000000  0.166667    0.00130208 104 t-inv F
 -0.250000 -0.000000  0.166667    0.00130208 105 t-inv F
 -0.125000 -0.000000  0.166667    0.00130208 106 t-inv F
  0.000000  0.125000  0.166667    0.00130208 107 t-inv F
  0.125000  0.125000  0.166667    0.00130208 108 t-inv F
  0.250000  0.125000  0.166667    0.00130208 109 t-inv F
  0.375000  0.125000  0.166667    0.00130208 110 t-inv F
  0.500000  0.125000  0.166667    0.00130208 111 t-inv F
 -0.375000  0.125000  0.166667    0.00130208 112 t-inv F
 -0.250000  0.125000  0.166667    0.00130208 113 t-inv F
 -0.125000  0.125000  0.166667    0.00130208 114 t-inv F
  0.000000  0.250000  0.166667    0.00130208 115 t-inv F
  0.125000  0.250000  0.166667    0.00130208 116 t-inv F
  0.250000  0.250000  0.166667    0.00130208 117 t-inv F
  0.375000  0.250000  0.166667    0.00130208 118 t-inv F
  0.500000  0.250000  0.166667    0.00130208 119 t-inv F
 -0.375000  0.250000  0.166667    0.00130208 120 t-inv F
 -0.250000  0.250000  0.166667    0.00130208 121 t-inv F
 -0.125000  0.250000  0.166667    0.00130208 122 t-inv F
  0.000000  0.375000  0.166667    0.00130208 123 t-inv F
  0.125000  0.375000  0.166667    0.00130208 124 t-inv F
  0.250000  0.375000  0.166667    0.00130208 125 t-inv F
  0.375000  0.375000  0.166667    0.00130208 126 t-inv F
  0.500000  0.375000  0.166667    0.00130208 127 t-inv F
 -0.375000  0.375000  0.166667    0.00130208 128 t-inv F
 -0.250000  0.375000  0.166667    0.00130208 129 t-inv F
 -0.125000  0.375000  0.166667    0.00130208 130 t-inv F
  0.000000  0.500000  0.166667    0.00130208 131 t-inv F
  0.125000  0.500000  0.166667    0.00130208 132 t-inv F
  0.250000  0.500000  0.166667    0.00130208 133 t-inv F
  0.375000  0.500000  0.166667    0.00130208 134 t-inv F
  0.500000  0.500000  0.166667    0.00130208 135 t-inv F
 -0.375000  0.500000  0.166667    0.00130208 136 t-inv F
 -0.250000  0.500000  0.166667    0.00130208 137 t-inv F
 -0.125000  0.500000  0.166667    0.00130208 138 t-inv F
 -0.000000 -0.375000  0.166667    0.00130208 139 t-inv F
  0.125000 -0.375000  0.166667    0.00130208 140 t-inv F
  0.250000 -0.375000  0.166667    0.00130208 141 t-inv F
  0.375000 -0.375000  0.166667    0.00130208 142 t-inv F
  0.500000 -0.375000  0.166667    0.00130208 143 t-inv F
 -0.375000 -0.375000  0.166667    0.00130208 144 t-inv F
 -0.250000 -0.375000  0.166667    0.00130208 145 t-inv F
 -0.125000 -0.375000  0.166667    0.00130208 146 t-inv F
 -0.000000 -0.250000  0.166667    0.00130208 147 t-inv F
  0.125000 -0.250000  0.166667    0.00130208 148 t-inv F
  0.250000 -0.250000  0.166667    0.00130208 149 t-inv F
  0.375000 -0.250000  0.166667    0.00130208 150 t-inv F
  0.500000 -0.250000  0.166667    0.00130208 151 t-inv F
 -0.375000 -0.250000  0.166667    0.00130208 152 t-inv F
 -0.250000 -0.250000  0.166667    0.00130208 153 t-inv F
 -0.125000 -0.250000  0.166667    0.00130208 154 t-inv F
 -0.000000 -0.125000  0.166667    0.00130208 155 t-inv F
  0.125000 -0.125000  0.166667    0.00130208 156 t-inv F
  0.250000 -0.125000  0.166667    0.00130208 157 t-inv F
  0.375000 -0.125000  0.166667    0.00130208 158 t-inv F
  0.500000 -0.125000  0.166667    0.00130208 159 t-inv F
 -0.375000 -0.125000  0.166667    0.00130208 160 t-inv F
 -0.250000 -0.125000  0.166667    0.00130208 161 t-inv F
 -0.125000 -0.125000  0.166667    0.00130208 162 t-inv F
  0.000000  0.000000  0.250000    0.00130208 163 t-inv F
  0.125000  0.000000  0.250000    0.00130208 164 t-inv F
  0.250000  0.000000  0.250000    0.00130208 165 t-inv F
  0.375000  0.000000  0.250000    0.00130208 166 t-inv F
  0.500000  0.000000  0.250000    0.00130208 167 t-inv F
 -0.375000 -0.000000  0.250000    0.00130208 168 t-inv F
 -0.250000 -0.000000  0.250000    0.00130208 169 t-inv F
 -0.125000 -0.000000  0.250000    0.00130208 170 t-inv F
  0.000000  0.125000  0.250000    0.00130208 171 t-inv F
  0.125000  0.125000  0.250000    0.00130208 172 t-inv F
  0.250000  0.125000  0.250000    0.00130208 173 t-inv F
  0.375000  0.125000  0.250000    0.00130208 174 t-inv F
  0.500000  0.125000  0.250000    0.00130208 175 t-inv F
 -0.375000  0.125000  0.250000    0.00130208 176 t-inv F
 -0.250000  0.125000  0.250000    0.00130208 177 t-inv F
 -0.125000  0.125000  0.250000    0.00130208 178 t-inv F
  0.000000  0.250000  0.250000    0.00130208 179 t-inv F
  0.125000  0.250000  0.250000    0.00130208 180 t-inv F
  0.250000  0.250000  0.250000    0.00130208 181 t-inv F
  0.375000  0.250000  0.250000    0.00130208 182 t-inv F
  0.500000  0.250000  0.250000    0.00130208 183 t-inv F
 -0.375000  0.250000  0.250000    0.00130208 184 t-inv F
 -0.250000  0.250000  0.250000    0.00130208 185 t-inv F
 -0.125000  0.250000  0.250000    0.00130208 186 t-inv F
  0.000000  0.375000  0.250000    0.00130208 187 t-inv F
  0.125000  0.375000  0.250000    0.00130208 188 t-inv F
  0.250000  0.375000  0.250000    0.00130208 189 t-inv F
  0.375000  0.375000  0.250000    0.00130208 190 t-inv F
  0.500000  0.375000  0.250000    0.00130208 191 t-inv F
 -0.375000  0.375000  0.250000    0.00130208 192 t-inv F
 -0.250000  0.375000  0.250000    0.00130208 193 t-inv F
 -0.125000  0.375000  0.250000    0.00130208 194 t-inv F
  0.000000  0.500000  0.250000    0.00130208 195 t-inv F
  0.125000  0.500000  0.250000    0.00130208 196 t-inv F
  0.250000  0.500000  0.250000    0.00130208 197 t-inv F
  0.375000  0.500000  0.250000    0.00130208 198 t-inv F
  0.500000  0.500000  0.250000    0.00130208 199 t-inv F
 -0.375000  0.500000  0.250000    0.00130208 200 t-inv F
 -0.250000  0.500000  0.250000    0.00130208 201 t-inv F
 -0.125000  0.500000  0.250000    0.00130208 202 t-inv F
 -0.000000 -0.375000  0.250000    0.00130208 203 t-inv F
  0.125000 -0.375000  0.250000    0.00130208 204 t-inv F
  0.250000 -0.375000  0.250000    0.00130208 205 t-inv F
  0.375000 -0.375000  0.250000    0.00130208 206 t-inv F
  0.500000 -0.375000  0.250000    0.00130208 207 t-inv F
 -0.375000 -0.375000  0.250000    0.00130208 208 t-inv F
 -0.250000 -0.375000  0.250000    0.00130208 209 t-inv F
 -0.125000 -0.375000  0.250000    0.00130208 210 t-inv F
 -0.000000 -0.250000  0.250000    0.00130208 211 t-inv F
  0.125000 -0.250000  0.250000    0.00130208 212 t-inv F
  0.250000 -0.250000  0.250000    0.00130208 213 t-inv F
  0.375000 -0.250000  0.250000    0.00130208 214 t-inv F
  0.500000 -0.250000  0.250000    0.00130208 215 t-inv F
 -0.375000 -0.250000  0.250000    0.00130208 216 t-inv F
 -0.250000 -0.250000  0.250000    0.00130208 217 t-inv F
 -0.125000 -0.250000  0.250000    0.00130208 218 t-inv F
 -0.000000 -0.125000  0.250000    0.00130208 219 t-inv F
  0.125000 -0.125000  0.250000    0.00130208 220 t-inv F
  0.250000 -0.125000  0.250000    0.00130208 221 t-inv F
  0.375000 -0.125000  0.250000    0.00130208 222 t-inv F
  0.500000 -0.125000  0.250000    0.00130208 223 t-inv F
 -0.375000 -0.125000  0.250000    0.00130208 224 t-inv F
 -0.250000 -0.125000  0.250000    0.00130208 225 t-inv F
 -0.125000 -0.125000  0.250000    0.00130208 226 t-inv F
  0.000000  0.000000  0.333333    0.00130208 227 t-inv F
  0.125000  0.000000  0.333333    0.00130208 228 t-inv F
  0.250000  0.000000  0.333333    0.00130208 229 t-inv F
  0.375000  0.000000  0.333333    0.00130208 230 t-inv F
  0.500000  0.000000  0.333333    0.00130208 231 t-inv F
 -0.375000 -0.000000  0.333333    0.00130208 232 t-inv F
 -0.250000 -0.000000  0.333333    0.00130208 233 t-inv F
 -0.125000 -0.000000  0.333333    0.00130208 234 t-inv F
  0.000000  0.125000  0.333333    0.00130208 235 t-inv F
  0.125000  0.125000  0.333333    0.00130208 236 t-inv F
  0.250000  0.125000  0.333333    0.00130208 237 t-inv F
  0.375000  0.125000  0.333333    0.00130208 238 t-inv F
  0.500000  0.125000  0.333333    0.00130208 239 t-inv F
 -0.375000  0.125000  0.333333    0.00130208 240 t-inv F
 -0.250000  0.125000  0.333333    0.00130208 241 t-inv F
 -0.125000  0.125000  0.333333    0.00130208 242 t-inv F
  0.000000  0.250000  0.333333    0.00130208 243 t-inv F
  0.125000  0.250000  0.333333    0.00130208 244 t-inv F
  0.250000  0.250000  0.333333    0.00130208 245 t-inv F
  0.375000  0.250000  0.333333    0.00130208 246 t-inv F
  0.500000  0.250000  0.333333    0.00130208 247 t-inv F
 -0.375000  0.250000  0.333333    0.00130208 248 t-inv F
 -0.250000  0.250000  0.333333    0.00130208 249 t-inv F
 -0.125000  0.250000  0.333333    0.00130208 250 t-inv F
  0.000000  0.375000  0.333333    0.00130208 251 t-inv F
  0.125000  0.375000  0.333333    0.00130208 252 t-inv F
  0.250000  0.375000  0.333333    0.00130208 253 t-inv F
  0.375000  0.375000  0.333333    0.00130208 254 t-inv F
  0.500000  0.375000  0.333333    0.00130208 255 t-inv F
 -0.375000  0.375000  0.333333    0.00130208 256 t-inv F
 -0.250000  0.375000  0.333333    0.00130208 257 t-inv F
 -0.125000  0.375000  0.333333    0.00130208 258 t-inv F
  0.000000  0.500000  0.333333    0.00130208 259 t-inv F
  0.125000  0.500000  0.333333    0.00130208 260 t-inv F
  0.250000  0.500000  0.333333    0.00130208 261 t-inv F
  0.375000  0.500000  0.333333    0.00130208 262 t-inv F
  0.500000  0.500000  0.333333    0.00130208 263 t-inv F
 -0.375000  0.500000  0.333333    0.00130208 264 t-inv F
 -0.250000  0.500000  0.333333    0.00130208 265 t-inv F
 -0.125000  0.500000  0.333333    0.00130208 266 t-inv F
 -0.000000 -0.375000  0.333333    0.00130208 267 t-inv F
  0.125000 -0.375000  0.333333    0.00130208 268 t-inv F
  0.250000 -0.375000  0.333333    0.00130208 269 t-inv F
  0.375000 -0.375000  0.333333    0.00130208 270 t-inv F
  0.500000 -0.375000  0.333333    0.00130208 271 t-inv F
 -0.375000 -0.375000  0.333333    0.00130208 272 t-inv F
 -0.250000 -0.375000  0.333333    0.00130208 273 t-inv F
 -0.125000 -0.375000  0.333333    0.00130208 274 t-inv F
 -0.000000 -0.250000  0.333333    0.00130208 275 t-inv F
  0.125000 -0.250000  0.333333    0.00130208 276 t-inv F
  0.250000 -0.250000  0.333333    0.00130208 277 t-inv F
  0.375000 -0.250000  0.333333    0.00130208 278 t-inv F
  0.500000 -0.250000  0.333333    0.00130208 279 t-inv F
 -0.375000 -0.250000  0.333333    0.00130208 280 t-inv F
 -0.250000 -0.250000  0.333333    0.00130208 281 t-inv F
 -0.125000 -0.250000  0.333333    0.00130208 282 t-inv F
 -0.000000 -0.125000  0.333333    0.00130208 283 t-inv F
  0.125000 -0.125000  0.333333    0.00130208 284 t-inv F
  0.250000 -0.125000  0.333333    0.00130208 285 t-inv F
  0.375000 -0.125000  0.333333    0.00130208 286 t-inv F
  0.500000 -0.125000  0.333333    0.00130208 287 t-inv F
 -0.375000 -0.125000  0.333333    0.00130208 288 t-inv F
 -0.250000 -0.125000  0.333333    0.00130208 289 t-inv F
 -0.125000 -0.125000  0.333333    0.00130208 290 t-inv F
  0.000000  0.000000  0.416667    0.00130208 291 t-inv F
  0.125000  0.000000  0.416667    0.00130208 292 t-inv F
  0.250000  0.000000  0.416667    0.00130208 293 t-inv F
  0.375000  0.000000  0.416667    0.00130208 294 t-inv F
  0.500000  0.000000  0.416667    0.00130208 295 t-inv F
 -0.375000 -0.000000  0.416667    0.00130208 296 t-inv F
 -0.250000 -0.000000  0.416667    0.00130208 297 t-inv F
 -0.125000 -0.000000  0.416667    0.00130208 298 t-inv F
  0.000000  0.125000  0.416667    0.00130208 299 t-inv F
  0.125000  0.125000  0.416667    0.00130208 300 t-inv F
  0.250000  0.125000  0.416667    0.00130208 301 t-inv F
  0.375000  0.125000  0.416667    0.00130208 302 t-inv F
  0.500000  0.125000  0.416667    0.00130208 303 t-inv F
 -0.375000  0.125000  0.416667    0.00130208 304 t-inv F
 -0.250000  0.125000  0.416667    0.00130208 305 t-inv F
 -0.125000  0.125000  0.416667    0.00130208 306 t-inv F
  0.000000  0.250000  0.416667    0.00130208 307 t-inv F
  0.125000  0.250000  0.416667    0.00130208 308 t-inv F
  0.250000  0.250000  0.416667    0.00130208 309 t-inv F
  0.375000  0.250000  0.416667    0.00130208 310 t-inv F
  0.500000  0.250000  0.416667    0.00130208 311 t-inv F
 -0.375000  0.250000  0.416667    0.00130208 312 t-inv F
 -0.250000  0.250000  0.416667    0.00130208 313 t-inv F
 -0.125000  0.250000  0.416667    0.00130208 314 t-inv F
  0.000000  0.375000  0.416667    0.00130208 315 t-inv F
  0.125000  0.375000  0.416667    0.00130208 316 t-inv F
  0.250000  0.375000  0.416667    0.00130208 317 t-inv F
  0.375000  0.375000  0.416667    0.00130208 318 t-inv F
  0.500000  0.375000  0.416667    0.00130208 319 t-inv F
 -0.375000  0.375000  0.416667    0.00130208 320 t-inv F
 -0.250000  0.375000  0.416667    0.00130208 321 t-inv F
 -0.125000  0.375000  0.416667    0.00130208 322 t-inv F
  0.000000  0.500000  0.416667    0.00130208 323 t-inv F
  0.125000  0.500000  0.416667    0.00130208 324 t-inv F
  0.250000  0.500000  0.416667    0.00130208 325 t-inv F
  0.375000  0.500000  0.416667    0.00130208 326 t-inv F
  0.500000  0.500000  0.416667    0.00130208 327 t-inv F
 -0.375000  0.500000  0.416667    0.00130208 328 t-inv F
 -0.250000  0.500000  0.416667    0.00130208 329 t-inv F
 -0.125000  0.500000  0.416667    0.00130208 330 t-inv F
 -0.000000 -0.375000  0.416667    0.00130208 331 t-inv F
  0.125000 -0.375000  0.416667    0.00130208 332 t-inv F
  0.250000 -0.375000  0.416667    0.00130208 333 t-inv F
  0.375000 -0.375000  0.416667    0.00130208 334 t-inv F
  0.500000 -0.375000  0.416667    0.00130208 335 t-inv F
 -0.375000 -0.375000  0.416667    0.00130208 336 t-inv F
 -0.250000 -0.375000  0.416667    0.00130208 337 t-inv F
 -0.125000 -0.375000  0.416667    0.00130208 338 t-inv F
 -0.000000 -0.250000  0.416667    0.00130208 339 t-inv F
  0.125000 -0.250000  0.416667    0.00130208 340 t-inv F
  0.250000 -0.250000  0.416667    0.00130208 341 t-inv F
  0.375000 -0.250000  0.416667    0.00130208 342 t-inv F
  0.500000 -0.250000  0.416667    0.00130208 343 t-inv F
 -0.375000 -0.250000  0.416667    0.00130208 344 t-inv F
 -0.250000 -0.250000  0.416667    0.00130208 345 t-inv F
 -0.125000 -0.250000  0.416667    0.00130208 346 t-inv F
 -0.000000 -0.125000  0.416667    0.00130208 347 t-inv F
  0.125000 -0.125000  0.416667    0.00130208 348 t-inv F
  0.250000 -0.125000  0.416667    0.00130208 349 t-inv F
  0.375000 -0.125000  0.416667    0.00130208 350 t-inv F
  0.500000 -0.125000  0.416667    0.00130208 351 t-inv F
 -0.375000 -0.125000  0.416667    0.00130208 352 t-inv F
 -0.250000 -0.125000  0.416667    0.00130208 353 t-inv F
 -0.125000 -0.125000  0.416667    0.00130208 354 t-inv F
  0.000000  0.000000  0.500000    0.00130208 355 t-inv F
  0.125000  0.000000  0.500000    0.00130208 356 t-inv F
  0.250000  0.000000  0.500000    0.00130208 357 t-inv F
  0.375000  0.000000  0.500000    0.00130208 358 t-inv F
  0.500000  0.000000  0.500000    0.00130208 359 t-inv F
  0.000000  0.125000  0.500000    0.00130208 360 t-inv F
  0.125000  0.125000  0.500000    0.00130208 361 t-inv F
  0.250000  0.125000  0.500000    0.00130208 362 t-inv F
  0.375000  0.125000  0.500000    0.00130208 363 t-inv F
  0.500000  0.125000  0.500000    0.00130208 364 t-inv F
 -0.375000  0.125000  0.500000    0.00130208 365 t-inv F
 -0.250000  0.125000  0.500000    0.00130208 366 t-inv F
 -0.125000  0.125000  0.500000    0.00130208 367 t-inv F
  0.000000  0.250000  0.500000    0.00130208 368 t-inv F
  0.125000  0.250000  0.500000    0.00130208 369 t-inv F
  0.250000  0.250000  0.500000    0.00130208 370 t-inv F
  0.375000  0.250000  0.500000    0.00130208 371 t-inv F
  0.500000  0.250000  0.500000    0.00130208 372 t-inv F
 -0.375000  0.250000  0.500000    0.00130208 373 t-inv F
 -0.250000  0.250000  0.500000    0.00130208 374 t-inv F
 -0.125000  0.250000  0.500000    0.00130208 375 t-inv F
  0.000000  0.375000  0.500000    0.00130208 376 t-inv F
  0.125000  0.375000  0.500000    0.00130208 377 t-inv F
  0.250000  0.375000  0.500000    0.00130208 378 t-inv F
  0.375000  0.375000  0.500000    0.00130208 379 t-inv F
  0.500000  0.375000  0.500000    0.00130208 380 t-inv F
 -0.375000  0.375000  0.500000    0.00130208 381 t-inv F
 -0.250000  0.375000  0.500000    0.00130208 382 t-inv F
 -0.125000  0.375000  0.500000    0.00130208 383 t-inv F
  0.000000  0.500000  0.500000    0.00130208 384 t-inv F
  0.125000  0.500000  0.500000    0.00130208 385 t-inv F
  0.250000  0.500000  0.500000    0.00130208 386 t-inv F
  0.375000  0.500000  0.500000    0.00130208 387 t-inv F
  0.500000  0.500000  0.500000    0.00130208 388 t-inv F
 -0.125000 -0.000000  0.000000    0.00130208   2 t-inv F
 -0.250000 -0.000000  0.000000    0.00130208   3 t-inv F
 -0.375000 -0.000000  0.000000    0.00130208   4 t-inv F
 -0.000000 -0.125000  0.000000    0.00130208   6 t-inv F
 -0.125000 -0.125000  0.000000    0.00130208   7 t-inv F
 -0.250000 -0.125000  0.000000    0.00130208   8 t-inv F
 -0.375000 -0.125000  0.000000    0.00130208   9 t-inv F
 -0.500000 -0.125000  0.000000    0.00130208  10 t-inv F
  0.375000 -0.125000  0.000000    0.00130208  11 t-inv F
  0.250000 -0.125000  0.000000    0.00130208  12 t-inv F
  0.125000 -0.125000  0.000000    0.00130208  13 t-inv F
 -0.000000 -0.250000  0.000000    0.00130208  14 t-inv F
 -0.125000 -0.250000  0.000000    0.00130208  15 t-inv F
 -0.250000 -0.250000  0.000000    0.00130208  16 t-inv F
 -0.375000 -0.250000  0.000000    0.00130208  17 t-inv F
 -0.500000 -0.250000  0.000000    0.00130208  18 t-inv F
  0.375000 -0.250000  0.000000    0.00130208  19 t-inv F
  0.250000 -0.250000  0.000000    0.00130208  20 t-inv F
  0.125000 -0.250000  0.000000    0.00130208  21 t-inv F
 -0.000000 -0.375000  0.000000    0.00130208  22 t-inv F
 -0.125000 -0.375000  0.000000    0.00130208  23 t-inv F
 -0.250000 -0.375000  0.000000    0.00130208  24 t-inv F
 -0.375000 -0.375000  0.000000    0.00130208  25 t-inv F
 -0.500000 -0.375000  0.000000    0.00130208  26 t-inv F
  0.375000 -0.375000  0.000000    0.00130208  27 t-inv F
  0.250000 -0.375000  0.000000    0.00130208  28 t-inv F
  0.125000 -0.375000  0.000000    0.00130208  29 t-inv F
 -0.125000 -0.500000  0.000000    0.00130208  31 t-inv F
 -0.250000 -0.500000  0.000000    0.00130208  32 t-inv F
 -0.375000 -0.500000  0.000000    0.00130208  33 t-inv F
  0.000000  0.000000 -0.083333    0.00130208  35 t-inv F
 -0.125000 -0.000000 -0.083333    0.00130208  36 t-inv F
 -0.250000 -0.000000 -0.083333    0.00130208  37 t-inv F
 -0.375000 -0.000000 -0.083333    0.00130208  38 t-inv F
 -0.500000 -0.000000 -0.083333    0.00130208  39 t-inv F
  0.375000  0.000000 -0.083333    0.00130208  40 t-inv F
  0.250000  0.000000 -0.083333    0.00130208  41 t-inv F
  0.125000  0.000000 -0.083333    0.00130208  42 t-inv F
 -0.000000 -0.125000 -0.083333    0.00130208  43 t-inv F
 -0.125000 -0.125000 -0.083333    0.00130208  44 t-inv F
 -0.250000 -0.125000 -0.083333    0.00130208  45 t-inv F
 -0.375000 -0.125000 -0.083333    0.00130208  46 t-inv F
 -0.500000 -0.125000 -0.083333    0.00130208  47 t-inv F
  0.375000 -0.125000 -0.083333    0.00130208  48 t-inv F
  0.250000 -0.125000 -0.083333    0.00130208  49 t-inv F
  0.125000 -0.125000 -0.083333    0.00130208  50 t-inv F
 -0.000000 -0.250000 -0.083333    0.00130208  51 t-inv F
 -0.125000 -0.250000 -0.083333    0.00130208  52 t-inv F
 -0.250000 -0.250000 -0.083333    0.00130208  53 t-inv F
 -0.375000 -0.250000 -0.083333    0.00130208  54 t-inv F
 -0.500000 -0.250000 -0.083333    0.00130208  55 t-inv F
  0.375000 -0.250000 -0.083333    0.00130208  56 t-inv F
  0.250000 -0.250000 -0.083333    0.00130208  57 t-inv F
  0.125000 -0.250000 -0.083333    0.00130208  58 t-inv F
 -0.000000 -0.375000 -0.083333    0.00130208  59 t-inv F
 -0.125000 -0.375000 -0.083333    0.00130208  60 t-inv F
 -0.250000 -0.375000 -0.083333    0.00130208  61 t-inv F
 -0.375000 -0.375000 -0.083333    0.00130208  62 t-inv F
 -0.500000 -0.375000 -0.083333    0.00130208  63 t-inv F
  0.375000 -0.375000 -0.083333    0.00130208  64 t-inv F
  0.250000 -0.375000 -0.083333    0.00130208  65 t-inv F
  0.125000 -0.375000 -0.083333    0.00130208  66 t-inv F
 -0.000000 -0.500000 -0.083333    0.00130208  67 t-inv F
 -0.125000 -0.500000 -0.083333    0.00130208  68 t-inv F
 -0.250000 -0.500000 -0.083333    0.00130208  69 t-inv F
 -0.375000 -0.500000 -0.083333    0.00130208  70 t-inv F
 -0.500000 -0.500000 -0.083333    0.00130208  71 t-inv F
  0.375000 -0.500000 -0.083333    0.00130208  72 t-inv F
  0.250000 -0.500000 -0.083333    0.00130208  73 t-inv F
  0.125000 -0.500000 -0.083333    0.00130208  74 t-inv F
  0.000000  0.375000 -0.083333    0.00130208  75 t-inv F
 -0.125000  0.375000 -0.083333    0.00130208  76 t-inv F
 -0.250000  0.375000 -0.083333    0.00130208  77 t-inv F
 -0.375000  0.375000 -0.083333    0.00130208  78 t-inv F
 -0.500000  0.375000 -0.083333    0.00130208  79 t-inv F
  0.375000  0.375000 -0.083333    0.00130208  80 t-inv F
  0.250000  0.375000 -0.083333    0.00130208  81 t-inv F
  0.125000  0.375000 -0.083333    0.00130208  82 t-inv F
  0.000000  0.250000 -0.083333    0.00130208  83 t-inv F
 -0.125000  0.250000 -0.083333    0.00130208  84 t-inv F
 -0.250000  0.250000 -0.083333    0.00130208  85 t-inv F
 -0.375000  0.250000 -0.083333    0.00130208  86 t-inv F
 -0.500000  0.250000 -0.083333    0.00130208  87 t-inv F
  0.375000  0.250000 -0.083333    0.00130208  88 t-inv F
  0.250000  0.250000 -0.083333    0.00130208  89 t-inv F
  0.125000  0.250000 -0.083333    0.00130208  90 t-inv F
  0.000000  0.125000 -0.083333    0.00130208  91 t-inv F
 -0.125000  0.125000 -0.083333    0.00130208  92 t-inv F
 -0.250000  0.125000 -0.083333    0.00130208  93 t-inv F
 -0.375000  0.125000 -0.083333    0.00130208  94 t-inv F
 -0.500000  0.125000 -0.083333    0.00130208  95 t-inv F
  0.375000  0.125000 -0.083333    0.00130208  96 t-inv F
  0.250000  0.125000 -0.083333    0.00130208  97 t-inv F
  0.125000  0.125000 -0.083333    0.00130208  98 t-inv F
  0.000000  0.000000 -0.166667    0.00130208  99 t-inv F
 -0.125000 -0.000000 -0.166667    0.00130208 100 t-inv F
 -0.250000 -0.000000 -0.166667    0.00130208 101 t-inv F
 -0.375000 -0.000000 -0.166667    0.00130208 102 t-inv F
 -0.500000 -0.000000 -0.166667    0.00130208 103 t-inv F
  0.375000  0.000000 -0.166667    0.00130208 104 t-inv F
  0.250000  0.000000 -0.166667    0.00130208 105 t-inv F
  0.125000  0.000000 -0.166667    0.00130208 106 t-inv F
 -0.000000 -0.125000 -0.166667    0.00130208 107 t-inv F
 -0.125000 -0.125000 -0.166667    0.00130208 108 t-inv F
 -0.250000 -0.125000 -0.166667    0.00130208 109 t-inv F
 -0.375000 -0.125000 -0.166667    0.00130208 110 t-inv F
 -0.500000 -0.125000 -0.166667    0.00130208 111 t-inv F
  0.375000 -0.125000 -0.166667    0.00130208 112 t-inv F
  0.250000 -0.125000 -0.166667    0.00130208 113 t-inv F
  0.125000 -0.125000 -0.166667    0.00130208 114 t-inv F
 -0.000000 -0.250000 -0.166667    0.00130208 115 t-inv F
 -0.125000 -0.250000 -0.166667    0.00130208 116 t-inv F
 -0.250000 -0.250000 -0.166667    0.00130208 117 t-inv F
 -0.375000 -0.250000 -0.166667    0.00130208 118 t-inv F
 -0.500000 -0.250000 -0.166667    0.00130208 119 t-inv F
  0.375000 -0.250000 -0.166667    0.00130208 120 t-inv F
  0.250000 -0.250000 -0.166667    0.00130208 121 t-inv F
  0.125000 -0.250000 -0.166667    0.00130208 122 t-inv F
 -0.000000 -0.375000 -0.166667    0.00130208 123 t-inv F
 -0.125000 -0.375000 -0.166667    0.00130208 124 t-inv F
 -0.250000 -0.375000 -0.166667    0.00130208 125 t-inv F
 -0.375000 -0.375000 -0.166667    0.00130208 126 t-inv F
 -0.500000 -0.375000 -0.166667    0.00130208 127 t-inv F
  0.375000 -0.375000 -0.166667    0.00130208 128 t-inv F
  0.250000 -0.375000 -0.166667    0.00130208 129 t-inv F
  0.125000 -0.375000 -0.166667    0.00130208 130 t-inv F
 -0.000000 -0.500000 -0.166667    0.00130208 131 t-inv F
 -0.125000 -0.500000 -0.166667    0.00130208 132 t-inv F
 -0.250000 -0.500000 -0.166667    0.00130208 133 t-inv F
 -0.375000 -0.500000 -0.166667    0.00130208 134 t-inv F
 -0.500000 -0.500000 -0.166667    0.00130208 135 t-inv F
  0.375000 -0.500000 -0.166667    0.00130208 136 t-inv F
  0.250000 -0.500000 -0.166667    0.00130208 137 t-inv F
  0.125000 -0.500000 -0.166667    0.00130208 138 t-inv F
  0.000000  0.375000 -0.166667    0.00130208 139 t-inv F
 -0.125000  0.375000 -0.166667    0.00130208 140 t-inv F
 -0.250000  0.375000 -0.166667    0.00130208 141 t-inv F
 -0.375000  0.375000 -0.166667    0.00130208 142 t-inv F
[...]
      8      -0.0080      0.00000
      9       0.0153      0.00000
     10      -0.0155      0.00000
     11      -0.1480      0.00000
     12       0.1484      0.00000
     13      -0.2732      0.00000
     14       0.2733      0.00000
     15      -0.6256      0.00000
     16       0.6259      0.00000
     17      -0.3124      0.00000
     18       0.3128      0.00000
     19      -0.3975      0.00000
     20       0.3976      0.00000
     21      -0.2679      0.00000
     22       0.2679      0.00000
     23      -0.6138      0.00000
     24       0.6138      0.00000

 k-point 388 :       0.5000    0.5000    0.5000
  band No.  band energies     occupation 
      1      -0.0255      0.00000
      2       0.0253      0.00000
      3       0.0116      0.00000
      4      -0.0118      0.00000
      5      -0.0018      0.00000
      6       0.0016      0.00000
      7       0.0090      0.00000
      8      -0.0092      0.00000
      9       0.0162      0.00000
     10      -0.0165      0.00000
     11      -0.1529      0.00000
     12       0.1533      0.00000
     13      -0.2571      0.00000
     14       0.2572      0.00000
     15      -0.5905      0.00000
     16       0.5907      0.00000
     17      -0.0124      0.00000
     18       0.0128      0.00000
     19      -0.3229      0.00000
     20       0.3230      0.00000
     21      -0.0565      0.00000
     22       0.0565      0.00000
     23      -0.7834      0.00000
     24       0.7834      0.00000


------------------------ aborting loop because EDIFF is reached ----------------------------------------


    FORLOC:  cpu time    0.0044: real time    0.0044
    FORNL :  cpu time    2.1800: real time    2.1799
    STRESS:  cpu time    9.6954: real time    9.6953
    FORCOR:  cpu time    0.0558: real time    0.0558
    OFIELD:  cpu time    0.0003: real time    0.0003
    FORLOC:  cpu time    0.0086: real time    0.0086
    FORNL :  cpu time    2.2174: real time    2.2174
    STRESS:  cpu time    9.7514: real time    9.7513
    FORCOR:  cpu time    0.0557: real time    0.0559
    OFIELD:  cpu time    0.0002: real time    0.0002
    FORLOC:  cpu time    0.0093: real time    0.0093
    FORNL :  cpu time    2.2176: real time    2.2176
    STRESS:  cpu time    9.7015: real time    9.7014
    FORCOR:  cpu time    0.0547: real time    0.0550
    OFIELD:  cpu time    0.0003: real time    0.0003
    FORLOC:  cpu time    0.0085: real time    0.0085
    FORNL :  cpu time    2.2138: real time    2.2137
    STRESS:  cpu time    9.7477: real time    9.7476
    FORCOR:  cpu time    0.0542: real time    0.0542
    OFIELD:  cpu time    0.0003: real time    0.0003

 INTERNAL STRAIN TENSOR  FOR ION    3  DIRECTION 3   (eV/Angst):
 -----------------------------------------------------------------------------
    -0.00089 -0.05400 -0.00027
     0.05314  0.00208 -0.22727
    -0.00022 -0.37061  0.00237


 POSITION                   FORCE-CONSTANT FOR ION    3 DIRECTION 3 (eV/Angst/Angst)
 -----------------------------------------------------------------------------------
      0.00000      7.76119      3.62523         0.000003      0.000152     -0.086033
     -0.00000      5.10408      1.20841         0.000009     -0.000011      0.448950
      0.00000     10.98570      3.62523        -0.000019     -0.000092     -0.894001
     -0.00000      1.87957      1.20841         0.000006     -0.000049      0.531084
 -----------------------------------------------------------------------------------
    total drift:                               -0.000000     -0.000000      0.000000


 BORN EFFECTIVE CHARGE FOR ION    3 DIRECTION 3 :   0.000   0.000  -2.408
                   rigid augmentation           :   0.000   0.000   1.670
                   ionic contribution           :   0.000   0.000   7.000
                   Berry contribution           :   0.000   0.000 -11.078


--------------------------------------------------------------------------------------------------------


  LATTYP: Found a base centered orthorhombic cell.
 ALAT       =     4.8602433554
 B/A-ratio  =     2.6470409334
 C/A-ratio  =     0.9945255073
  
  Lattice vectors:
  
 A1 = (   2.4301216777,   6.4326315541,   0.0000000000)
 A2 = (   2.4301216777,  -6.4326315541,   0.0000000000)
 A3 = (   0.0000000000,   0.0000000000,  -4.8336359887)


Analysis of symmetry for initial positions (statically):
=====================================================================
 Subroutine PRICEL returns:
 Original cell was already a primitive cell.
 

 Routine SETGRP: Setting up the symmetry group for a 
 base centered orthorhombic supercell.


 Subroutine GETGRP returns: Found  2 space group operations
 (whereof  1 operations were pure point group operations)
 out of a pool of  8 trial point group operations.


The static configuration has the point symmetry C_1 .
 The point group associated with its full space group is S_2 .


Analysis of symmetry for dynamics (positions and initial velocities):
=====================================================================
 Subroutine PRICEL returns:
 Original cell was already a primitive cell.
 

 Routine SETGRP: Setting up the symmetry group for a 
 base centered orthorhombic supercell.


 Subroutine GETGRP returns: Found  2 space group operations
 (whereof  1 operations were pure point group operations)
 out of a pool of  8 trial point group operations.


The dynamic configuration has the point symmetry C_1 .
 The point group associated with its full space group is S_2 .


 Subroutine INISYM returns: Found  2 space group operations
 (whereof  1 operations are pure point group operations),
 and found     1 'primitive' translations



--------------------------------------------------------------------------------------------------------




 MACROSCOPIC STATIC DIELECTRIC TENSOR (including local field effects in DFT)
 ------------------------------------------------------
           8.363778    -0.000000    -0.000003
           0.000002     8.902110     0.000001
           0.000000     0.000001     9.466092
 ------------------------------------------------------


 PIEZOELECTRIC TENSOR  for field in x, y, z        (e  Angst)
          XX          YY          ZZ          XY          YZ          ZX
  --------------------------------------------------------------------------------
  x     0.00025     0.00054    -0.00081     0.00061    -0.00000    -0.00107
  y     0.00268    -0.00129    -0.00106    -0.00143    -0.02499     0.00002
  z    -0.00268    -0.00929     0.00718     0.00000     0.00015     0.00017

 PIEZOELECTRIC TENSOR  for field in x, y, z        (C/m^2)
          XX          YY          ZZ          XY          YZ          ZX
  --------------------------------------------------------------------------------
  x     0.00000     0.00000     0.00000     0.00000     0.00000     0.00000
  y     0.00000     0.00000     0.00000     0.00000     0.00000     0.00000
  z     0.00000     0.00000     0.00000     0.00000     0.00000     0.00000
 
 BORN EFFECTIVE CHARGES (in e, cummulative output)
 -------------------------------------------------
 ion    1
    1     2.42437     0.00004    -0.00000
    2    -0.00008     2.46868    -0.00011
    3    -0.00000    -0.00085     2.40778
 ion    2
    1     2.42434    -0.00003     0.00000
    2     0.00008     2.46876     0.00011
    3    -0.00000     0.00085     2.40777
 ion    3
    1    -2.42441     0.00002    -0.00000
    2     0.00011    -2.46876    -0.00030
    3     0.00000    -0.00016    -2.40779
 ion    4
    1    -2.42430    -0.00002     0.00000
    2    -0.00011    -2.46869     0.00030
    3    -0.00000     0.00016    -2.40776

 INTERNAL STRAIN TENSOR FOR ION    1 for displacements in x,y,z  (eV/Angst):
          X           Y           Z          XY          YZ          ZX
  --------------------------------------------------------------------------------
  x     0.00014     0.00011    -0.00018     0.31381    -0.00005    -0.00546
  y     1.80091     3.28701     1.09728     0.00122    -0.03920    -0.00001
  z    -0.00099     0.00161     0.00090     0.00501    -0.03520     0.00021

 INTERNAL STRAIN TENSOR FOR ION    2 for displacements in x,y,z  (eV/Angst):
          X           Y           Z          XY          YZ          ZX
  --------------------------------------------------------------------------------
  x    -0.00014    -0.00011     0.00018    -0.31381     0.00005     0.00546
  y    -1.80091    -3.28701    -1.09728    -0.00122     0.03920     0.00001
  z     0.00099    -0.00161    -0.00090    -0.00501     0.03520    -0.00021

 INTERNAL STRAIN TENSOR FOR ION    3 for displacements in x,y,z  (eV/Angst):
          X           Y           Z          XY          YZ          ZX
  --------------------------------------------------------------------------------
  x    -0.00034     0.00003     0.00040    -0.29293     0.00002    -0.02078
  y     0.18125    -2.92786     0.52425    -0.00107     0.07665     0.00001
  z    -0.00089     0.00208     0.00237     0.05314    -0.37061    -0.00027

 INTERNAL STRAIN TENSOR FOR ION    4 for displacements in x,y,z  (eV/Angst):
          X           Y           Z          XY          YZ          ZX
  --------------------------------------------------------------------------------
  x     0.00034    -0.00003    -0.00040     0.29293    -0.00002     0.02078
  y    -0.18125     2.92786    -0.52425     0.00107    -0.07665    -0.00001
  z     0.00089    -0.00208    -0.00237    -0.05314     0.37061     0.00027


--------------------------------------------------------------------------------------------------------


 
 SECOND DERIVATIVES (NOT SYMMETRIZED)
 ------------------------------------
               1X          1Y          1Z          2X          2Y          2Z          3X          3Y          3Z          4X          4Y          4Z 
  1X    -0.387381   -0.001069   -0.000006   -0.090520    0.000384    0.000001    0.058760    0.000302    0.000001    0.419141    0.000383    0.000004
  1Y     0.000024   -1.412376   -0.000319    0.000013    0.613527    0.000173   -0.000020    0.872967    0.000022   -0.000017   -0.074118    0.000125
  1Z     0.000022    0.000345   -0.632906   -0.000008   -0.000186    0.266267   -0.000007   -0.000043   -0.083972   -0.000007   -0.000117    0.450611
  2X    -0.090520    0.000384    0.000001   -0.387381   -0.001069   -0.000006    0.419141    0.000383    0.000004    0.058760    0.000302    0.000001
  2Y     0.000013    0.613527    0.000173    0.000024   -1.412376   -0.000319   -0.000017   -0.074118    0.000125   -0.000020    0.872967    0.000022
  2Z    -0.000008   -0.000186    0.266267    0.000022    0.000345   -0.632906   -0.000007   -0.000117    0.450611   -0.000007   -0.000043   -0.083972
  3X     0.058465   -0.000018    0.000002    0.418858   -0.000049   -0.000006   -1.032977    0.000083    0.000009    0.555655   -0.000017   -0.000006
  3Y     0.000073    0.874981    0.000081    0.000001   -0.071716   -0.000297   -0.000097   -1.489854    0.000160    0.000024    0.686589    0.000057
  3Z     0.000003    0.000152   -0.086033    0.000009   -0.000011    0.448950   -0.000019   -0.000092   -0.894001    0.000006   -0.000049    0.531084
  4X     0.418858   -0.000049   -0.000006    0.058465   -0.000018    0.000002    0.555655   -0.000017   -0.000006   -1.032977    0.000083    0.000009
  4Y     0.000001   -0.071716   -0.000297    0.000073    0.874981    0.000081    0.000024    0.686589    0.000057   -0.000097   -1.489854    0.000160
  4Z     0.000009   -0.000011    0.448950    0.000003    0.000152   -0.086033    0.000006   -0.000049    0.531084   -0.000019   -0.000092   -0.894001
 
 
 Eigenvectors and eigenvalues of the dynamical matrix
 ----------------------------------------------------
 
 
   1 f  =    2.483945 THz    15.607086 2PiTHz   82.855480 cm-1    10.272774 meV
             X         Y         Z           dx          dy          dz
      0.000000  7.761186  3.625227     0.000143    0.507805    0.000052  
     -0.000000  5.104077  1.208409    -0.000143   -0.507805   -0.000052  
      0.000000 10.985697  3.625227     0.000026   -0.492071    0.000016  
     -0.000000  1.879567  1.208409    -0.000026    0.492071   -0.000016  
 
   2 f  =    1.867860 THz    11.736112 2PiTHz   62.305107 cm-1     7.724852 meV
             X         Y         Z           dx          dy          dz
      0.000000  7.761186  3.625227     0.000000    0.000146   -0.400589  
     -0.000000  5.104077  1.208409    -0.000000   -0.000146    0.400589  
      0.000000 10.985697  3.625227    -0.000005    0.000090   -0.582691  
     -0.000000  1.879567  1.208409     0.000005   -0.000090    0.582691  
 
   3 f  =    1.806081 THz    11.347941 2PiTHz   60.244370 cm-1     7.469353 meV
             X         Y         Z           dx          dy          dz
      0.000000  7.761186  3.625227    -0.189036   -0.000104    0.000008  
     -0.000000  5.104077  1.208409     0.189036    0.000104   -0.000008  
      0.000000 10.985697  3.625227    -0.681370   -0.000198   -0.000000  
     -0.000000  1.879567  1.208409     0.681370    0.000198    0.000000  
 
   4 f  =    1.802048 THz    11.322603 2PiTHz   60.109855 cm-1     7.452675 meV
             X         Y         Z           dx          dy          dz
      0.000000  7.761186  3.625227     0.000387    0.511674   -0.000071  
     -0.000000  5.104077  1.208409     0.000387    0.511674   -0.000071  
      0.000000 10.985697  3.625227    -0.000139   -0.488047   -0.000024  
     -0.000000  1.879567  1.208409    -0.000139   -0.488047   -0.000024  
 
   5 f  =    1.527676 THz     9.598673 2PiTHz   50.957795 cm-1     6.317964 meV
             X         Y         Z           dx          dy          dz
      0.000000  7.761186  3.625227    -0.000313   -0.492071    0.000030  
     -0.000000  5.104077  1.208409     0.000313    0.492071   -0.000030  
      0.000000 10.985697  3.625227     0.000310   -0.507805   -0.000222  
     -0.000000  1.879567  1.208409    -0.000310    0.507805    0.000222  
 
   6 f  =    1.391580 THz     8.743556 2PiTHz   46.418114 cm-1     5.755115 meV
             X         Y         Z           dx          dy          dz
      0.000000  7.761186  3.625227    -0.512493    0.000300    0.000008  
     -0.000000  5.104077  1.208409    -0.512493    0.000300    0.000008  
      0.000000 10.985697  3.625227     0.487187   -0.000230    0.000006  
     -0.000000  1.879567  1.208409     0.487187   -0.000230    0.000006  
 
   7 f  =    1.216284 THz     7.642140 2PiTHz   40.570879 cm-1     5.030150 meV
             X         Y         Z           dx          dy          dz
      0.000000  7.761186  3.625227    -0.000004   -0.000147   -0.513585  
     -0.000000  5.104077  1.208409    -0.000004   -0.000147   -0.513585  
      0.000000 10.985697  3.625227    -0.000001   -0.000103    0.486035  
     -0.000000  1.879567  1.208409    -0.000001   -0.000103    0.486035  
 
   8 f  =    1.081459 THz     6.795009 2PiTHz   36.073598 cm-1     4.472558 meV
             X         Y         Z           dx          dy          dz
      0.000000  7.761186  3.625227     0.000017   -0.000080   -0.582691  
     -0.000000  5.104077  1.208409    -0.000017    0.000080    0.582691  
      0.000000 10.985697  3.625227    -0.000011   -0.000132    0.400589  
     -0.000000  1.879567  1.208409     0.000011    0.000132   -0.400589  
 
   9 f  =    0.655322 THz     4.117511 2PiTHz   21.859193 cm-1     2.710196 meV
             X         Y         Z           dx          dy          dz
      0.000000  7.761186  3.625227     0.681370   -0.000362    0.000017  
     -0.000000  5.104077  1.208409    -0.681370    0.000362   -0.000017  
      0.000000 10.985697  3.625227    -0.189036   -0.000185   -0.000010  
     -0.000000  1.879567  1.208409     0.189036    0.000185    0.000010  
 
  10 f/i=    0.000401 THz     0.002521 2PiTHz    0.013384 cm-1     0.001659 meV
             X         Y         Z           dx          dy          dz
      0.000000  7.761186  3.625227    -0.479263   -0.087054    0.009525  
     -0.000000  5.104077  1.208409    -0.479263   -0.087054    0.009525  
      0.000000 10.985697  3.625227    -0.504147   -0.091506    0.010014  
     -0.000000  1.879567  1.208409    -0.504147   -0.091506    0.010014  
 
  11 f/i=    0.002440 THz     0.015328 2PiTHz    0.081374 cm-1     0.010089 meV
             X         Y         Z           dx          dy          dz
      0.000000  7.761186  3.625227    -0.084940    0.450448   -0.166896  
     -0.000000  5.104077  1.208409    -0.084940    0.450448   -0.166896  
      0.000000 10.985697  3.625227    -0.089401    0.472246   -0.176121  
     -0.000000  1.879567  1.208409    -0.089401    0.472246   -0.176121  
 
  12 f/i=    0.003182 THz     0.019992 2PiTHz    0.106132 cm-1     0.013159 meV
             X         Y         Z           dx          dy          dz
      0.000000  7.761186  3.625227    -0.021055    0.166457    0.456383  
     -0.000000  5.104077  1.208409    -0.021055    0.166457    0.456383  
      0.000000 10.985697  3.625227    -0.022182    0.174415    0.482339  
     -0.000000  1.879567  1.208409    -0.022182    0.174415    0.482339  
 


--------------------------------------------------------------------------------------------------------




 MACROSCOPIC STATIC DIELECTRIC TENSOR IONIC CONTRIBUTION
 ------------------------------------------------------
          29.470795    -0.006133     0.000008
          -0.006133    18.220264     0.001137
           0.000008     0.001137    38.060373
 ------------------------------------------------------


 ELASTIC MODULI IONIC CONTR (kBar)
 Direction    XX          YY          ZZ          XY          YZ          ZX
 --------------------------------------------------------------------------------
 XX         -46.7437    -44.5489    -33.6574      0.0058      0.0063      0.0000
 YY         -44.5489   -136.7655    -20.1013     -0.0217      2.3507      0.0004
 ZZ         -33.6574    -20.1013    -25.7557      0.0246     -0.2767      0.0001
 XY           0.0058     -0.0217      0.0246    -15.4479      0.3428     -0.0530
 YZ           0.0063      2.3507     -0.2767      0.3428     -2.4290     -0.0025
 ZX           0.0000      0.0004      0.0001     -0.0530     -0.0025     -0.0058
 --------------------------------------------------------------------------------


 PIEZOELECTRIC TENSOR IONIC CONTR  for field in x, y, z        (C/m^2)
          XX          YY          ZZ          XY          YZ          ZX
  --------------------------------------------------------------------------------
  x     0.00001     0.00001     0.00001     0.00001     0.00000     0.00000
  y    -0.00001    -0.00000    -0.00001    -0.00005     0.00002    -0.00000
  z    -0.00023    -0.00020    -0.00017    -0.00000     0.00000    -0.00000


--------------------------------------------------------------------------------------------------------


     LOOP+:  cpu time 6610.7562: real time 6611.7265
    4ORBIT:  cpu time    0.0000: real time    0.0000

 total amount of memory used by VASP MPI-rank0   583251. kBytes
=======================================================================

   base      :      30000. kBytes
   nonl-proj :     460648. kBytes
   fftplans  :       4156. kBytes
   grid      :      10463. kBytes
   one-center:         62. kBytes
   wavefun   :      77922. kBytes
 
  
  
 General timing and accounting informations for this job:
 ========================================================
  
                  Total CPU time used (sec):     6617.906
                            User time (sec):     6565.703
                          System time (sec):       52.203
                         Elapsed time (sec):     6618.942
  
                   Maximum memory used (kb):     1225256.
                   Average memory used (kb):           0.
  
                          Minor page faults:      1654999
                          Major page faults:            5
                 Voluntary context switches:        16844
