<?xml version="1.0" encoding="ISO-8859-1"?>
<modeling>
 <generator>
  <i name="program" type="string">vasp </i>
  <i name="version" type="string">5.4.4.18Apr17-6-g9f103f2a35  </i>
  <i name="subversion" type="string">(build Aug 24 2017 11:22:49) complex            parallel </i>
  <i name="platform" type="string">LinuxIFC </i>
  <i name="date" type="string">2023 12 25 </i>
  <i name="time" type="string">13:07:47 </i>
 </generator>
 <incar>
  <i type="string" name="PREC">accurate</i>
  <i type="string" name="ALGO"> Normal</i>
  <i type="int" name="NELM">   100</i>
  <i type="int" name="IBRION">     8</i>
  <i name="EDIFF">      0.00000001</i>
  <i name="SYMPREC">      0.00000001</i>
  <i name="ENCUT">    520.00000000</i>
  <i type="logical" name="LREAL"> F  </i>
  <i type="int" name="ISMEAR">     0</i>
  <i name="SIGMA">      0.01000000</i>
  <i type="logical" name="LWAVE"> F  </i>
  <v type="int" name="KPOINT_BSE">    -1     0     0     0</v>
  <i type="int" name="NELM">   100</i>
  <i type="logical" name="LPEAD"> T  </i>
  <i type="logical" name="LEPSILON"> T  </i>
 </incar>
 <structure name="primitive_cell" >
  <crystal>
   <varray name="basis" >
    <v>       2.43012168       6.43263155       0.00000000 </v>
    <v>      -2.43012168       6.43263155       0.00000000 </v>
    <v>       0.00000000       0.00000000       4.83363599 </v>
   </varray>
   <i name="volume">    151.11954365 </i>
   <varray name="rec_basis" >
    <v>       0.20575101       0.07772869       0.00000000 </v>
    <v>      -0.20575101       0.07772869       0.00000000 </v>
    <v>       0.00000000       0.00000000       0.20688360 </v>
   </varray>
  </crystal>
  <varray name="positions" >
   <v>      -0.39673314      -0.39673322      -0.24999994 </v>
   <v>      -0.14609617      -0.14609625      -0.24999994 </v>
   <v>       0.14609625       0.14609625       0.25000002 </v>
   <v>       0.39673322       0.39673322       0.25000002 </v>
  </varray>
 </structure>
 <varray name="primitive_index" >
  <v type="int" >        1 </v>
  <v type="int" >        3 </v>
  <v type="int" >        4 </v>
  <v type="int" >        2 </v>
 </varray>
 <kpoints>
  <generation param="Gamma">
   <v type="int" name="divisions">       8        8       12 </v>
   <v name="usershift">      0.00000000       0.00000000       0.00000000 </v>
   <v name="genvec1">      0.12500000      -0.00000000       0.00000000 </v>
   <v name="genvec2">     -0.00000000       0.12500000       0.00000000 </v>
   <v name="genvec3">      0.00000000       0.00000000       0.08333333 </v>
   <v name="shift">      0.00000000       0.00000000       0.00000000 </v>
  </generation>
  <varray name="kpointlist" >
   <v>       0.00000000       0.00000000       0.00000000 </v>
   <v>       0.12500000       0.00000000       0.00000000 </v>
   <v>       0.25000000       0.00000000       0.00000000 </v>
   <v>       0.37500000       0.00000000       0.00000000 </v>
   <v>       0.50000000       0.00000000       0.00000000 </v>
   <v>       0.00000000       0.12500000       0.00000000 </v>
   <v>       0.12500000       0.12500000       0.00000000 </v>
   <v>       0.25000000       0.12500000       0.00000000 </v>
   <v>       0.37500000       0.12500000       0.00000000 </v>
   <v>       0.50000000       0.12500000       0.00000000 </v>
   <v>      -0.37500000       0.12500000       0.00000000 </v>
   <v>      -0.25000000       0.12500000       0.00000000 </v>
   <v>      -0.12500000       0.12500000       0.00000000 </v>
   <v>       0.00000000       0.25000000       0.00000000 </v>
   <v>       0.12500000       0.25000000       0.00000000 </v>
   <v>       0.25000000       0.25000000       0.00000000 </v>
   <v>       0.37500000       0.25000000       0.00000000 </v>
   <v>       0.50000000       0.25000000       0.00000000 </v>
   <v>      -0.37500000       0.25000000       0.00000000 </v>
   <v>      -0.25000000       0.25000000       0.00000000 </v>
   <v>      -0.12500000       0.25000000       0.00000000 </v>
   <v>       0.00000000       0.37500000       0.00000000 </v>
   <v>       0.12500000       0.37500000       0.00000000 </v>
   <v>       0.25000000       0.37500000       0.00000000 </v>
   <v>       0.37500000       0.37500000       0.00000000 </v>
   <v>       0.50000000       0.37500000       0.00000000 </v>
   <v>      -0.37500000       0.37500000       0.00000000 </v>
   <v>      -0.25000000       0.37500000       0.00000000 </v>
   <v>      -0.12500000       0.37500000       0.00000000 </v>
   <v>       0.00000000       0.50000000       0.00000000 </v>
   <v>       0.12500000       0.50000000       0.00000000 </v>
   <v>       0.25000000       0.50000000       0.00000000 </v>
   <v>       0.37500000       0.50000000       0.00000000 </v>
   <v>       0.50000000       0.50000000       0.00000000 </v>
   <v>       0.00000000       0.00000000       0.08333333 </v>
   <v>       0.12500000       0.00000000       0.08333333 </v>
   <v>       0.25000000       0.00000000       0.08333333 </v>
   <v>       0.37500000       0.00000000       0.08333333 </v>
   <v>       0.50000000       0.00000000       0.08333333 </v>
   <v>      -0.37500000      -0.00000000       0.08333333 </v>
   <v>      -0.25000000      -0.00000000       0.08333333 </v>
   <v>      -0.12500000      -0.00000000       0.08333333 </v>
   <v>       0.00000000       0.12500000       0.08333333 </v>
   <v>       0.12500000       0.12500000       0.08333333 </v>
   <v>       0.25000000       0.12500000       0.08333333 </v>
   <v>       0.37500000       0.12500000       0.08333333 </v>
   <v>       0.50000000       0.12500000       0.08333333 </v>
   <v>      -0.37500000       0.12500000       0.08333333 </v>
   <v>      -0.25000000       0.12500000       0.08333333 </v>
   <v>      -0.12500000       0.12500000       0.08333333 </v>
   <v>       0.00000000       0.25000000       0.08333333 </v>
   <v>       0.12500000       0.25000000       0.08333333 </v>
   <v>       0.25000000       0.25000000       0.08333333 </v>
   <v>       0.37500000       0.25000000       0.08333333 </v>
   <v>       0.50000000       0.25000000       0.08333333 </v>
   <v>      -0.37500000       0.25000000       0.08333333 </v>
   <v>      -0.25000000       0.25000000       0.08333333 </v>
   <v>      -0.12500000       0.25000000       0.08333333 </v>
   <v>       0.00000000       0.37500000       0.08333333 </v>
   <v>       0.12500000       0.37500000       0.08333333 </v>
   <v>       0.25000000       0.37500000       0.08333333 </v>
   <v>       0.37500000       0.37500000       0.08333333 </v>
   <v>       0.50000000       0.37500000       0.08333333 </v>
   <v>      -0.37500000       0.37500000       0.08333333 </v>
   <v>      -0.25000000       0.37500000       0.08333333 </v>
   <v>      -0.12500000       0.37500000       0.08333333 </v>
   <v>       0.00000000       0.50000000       0.08333333 </v>
   <v>       0.12500000       0.50000000       0.08333333 </v>
   <v>       0.25000000       0.50000000       0.08333333 </v>
   <v>       0.37500000       0.50000000       0.08333333 </v>
   <v>       0.50000000       0.50000000       0.08333333 </v>
   <v>      -0.37500000       0.50000000       0.08333333 </v>
   <v>      -0.25000000       0.50000000       0.08333333 </v>
   <v>      -0.12500000       0.50000000       0.08333333 </v>
   <v>      -0.00000000      -0.37500000       0.08333333 </v>
   <v>       0.12500000      -0.37500000       0.08333333 </v>
   <v>       0.25000000      -0.37500000       0.08333333 </v>
   <v>       0.37500000      -0.37500000       0.08333333 </v>
   <v>       0.50000000      -0.37500000       0.08333333 </v>
   <v>      -0.37500000      -0.37500000       0.08333333 </v>
   <v>      -0.25000000      -0.37500000       0.08333333 </v>
   <v>      -0.12500000      -0.37500000       0.08333333 </v>
   <v>      -0.00000000      -0.25000000       0.08333333 </v>
   <v>       0.12500000      -0.25000000       0.08333333 </v>
   <v>       0.25000000      -0.25000000       0.08333333 </v>
   <v>       0.37500000      -0.25000000       0.08333333 </v>
   <v>       0.50000000      -0.25000000       0.08333333 </v>
   <v>      -0.37500000      -0.25000000       0.08333333 </v>
   <v>      -0.25000000      -0.25000000       0.08333333 </v>
   <v>      -0.12500000      -0.25000000       0.08333333 </v>
   <v>      -0.00000000      -0.12500000       0.08333333 </v>
   <v>       0.12500000      -0.12500000       0.08333333 </v>
   <v>       0.25000000      -0.12500000       0.08333333 </v>
   <v>       0.37500000      -0.12500000       0.08333333 </v>
   <v>       0.50000000      -0.12500000       0.08333333 </v>
   <v>      -0.37500000      -0.12500000       0.08333333 </v>
   <v>      -0.25000000      -0.12500000       0.08333333 </v>
   <v>      -0.12500000      -0.12500000       0.08333333 </v>
   <v>       0.00000000       0.00000000       0.16666667 </v>
   <v>       0.12500000       0.00000000       0.16666667 </v>
   <v>       0.25000000       0.00000000       0.16666667 </v>
   <v>       0.37500000       0.00000000       0.16666667 </v>
   <v>       0.50000000       0.00000000       0.16666667 </v>
   <v>      -0.37500000      -0.00000000       0.16666667 </v>
   <v>      -0.25000000      -0.00000000       0.16666667 </v>
   <v>      -0.12500000      -0.00000000       0.16666667 </v>
   <v>       0.00000000       0.12500000       0.16666667 </v>
   <v>       0.12500000       0.12500000       0.16666667 </v>
   <v>       0.25000000       0.12500000       0.16666667 </v>
   <v>       0.37500000       0.12500000       0.16666667 </v>
   <v>       0.50000000       0.12500000       0.16666667 </v>
   <v>      -0.37500000       0.12500000       0.16666667 </v>
   <v>      -0.25000000       0.12500000       0.16666667 </v>
   <v>      -0.12500000       0.12500000       0.16666667 </v>
   <v>       0.00000000       0.25000000       0.16666667 </v>
   <v>       0.12500000       0.25000000       0.16666667 </v>
   <v>       0.25000000       0.25000000       0.16666667 </v>
   <v>       0.37500000       0.25000000       0.16666667 </v>
   <v>       0.50000000       0.25000000       0.16666667 </v>
   <v>      -0.37500000       0.25000000       0.16666667 </v>
   <v>      -0.25000000       0.25000000       0.16666667 </v>
   <v>      -0.12500000       0.25000000       0.16666667 </v>
   <v>       0.00000000       0.37500000       0.16666667 </v>
   <v>       0.12500000       0.37500000       0.16666667 </v>
   <v>       0.25000000       0.37500000       0.16666667 </v>
   <v>       0.37500000       0.37500000       0.16666667 </v>
   <v>       0.50000000       0.37500000       0.16666667 </v>
   <v>      -0.37500000       0.37500000       0.16666667 </v>
   <v>      -0.25000000       0.37500000       0.16666667 </v>
   <v>      -0.12500000       0.37500000       0.16666667 </v>
   <v>       0.00000000       0.50000000       0.16666667 </v>
   <v>       0.12500000       0.50000000       0.16666667 </v>
   <v>       0.25000000       0.50000000       0.16666667 </v>
   <v>       0.37500000       0.50000000       0.16666667 </v>
   <v>       0.50000000       0.50000000       0.16666667 </v>
   <v>      -0.37500000       0.50000000       0.16666667 </v>
   <v>      -0.25000000       0.50000000       0.16666667 </v>
   <v>      -0.12500000       0.50000000       0.16666667 </v>
   <v>      -0.00000000      -0.37500000       0.16666667 </v>
   <v>       0.12500000      -0.37500000       0.16666667 </v>
   <v>       0.25000000      -0.37500000       0.16666667 </v>
   <v>       0.37500000      -0.37500000       0.16666667 </v>
   <v>       0.50000000      -0.37500000       0.16666667 </v>
   <v>      -0.37500000      -0.37500000       0.16666667 </v>
   <v>      -0.25000000      -0.37500000       0.16666667 </v>
   <v>      -0.12500000      -0.37500000       0.16666667 </v>
   <v>      -0.00000000      -0.25000000       0.16666667 </v>
   <v>       0.12500000      -0.25000000       0.16666667 </v>
   <v>       0.25000000      -0.25000000       0.16666667 </v>
   <v>       0.37500000      -0.25000000       0.16666667 </v>
   <v>       0.50000000      -0.25000000       0.16666667 </v>
   <v>      -0.37500000      -0.25000000       0.16666667 </v>
   <v>      -0.25000000      -0.25000000       0.16666667 </v>
   <v>      -0.12500000      -0.25000000       0.16666667 </v>
   <v>      -0.00000000      -0.12500000       0.16666667 </v>
   <v>       0.12500000      -0.12500000       0.16666667 </v>
   <v>       0.25000000      -0.12500000       0.16666667 </v>
   <v>       0.37500000      -0.12500000       0.16666667 </v>
   <v>       0.50000000      -0.12500000       0.16666667 </v>
   <v>      -0.37500000      -0.12500000       0.16666667 </v>
   <v>      -0.25000000      -0.12500000       0.16666667 </v>
   <v>      -0.12500000      -0.12500000       0.16666667 </v>
   <v>       0.00000000       0.00000000       0.25000000 </v>
   <v>       0.12500000       0.00000000       0.25000000 </v>
   <v>       0.25000000       0.00000000       0.25000000 </v>
   <v>       0.37500000       0.00000000       0.25000000 </v>
   <v>       0.50000000       0.00000000       0.25000000 </v>
   <v>      -0.37500000      -0.00000000       0.25000000 </v>
   <v>      -0.25000000      -0.00000000       0.25000000 </v>
   <v>      -0.12500000      -0.00000000       0.25000000 </v>
   <v>       0.00000000       0.12500000       0.25000000 </v>
   <v>       0.12500000       0.12500000       0.25000000 </v>
   <v>       0.25000000       0.12500000       0.25000000 </v>
   <v>       0.37500000       0.12500000       0.25000000 </v>
   <v>       0.50000000       0.12500000       0.25000000 </v>
   <v>      -0.37500000       0.12500000       0.25000000 </v>
   <v>      -0.25000000       0.12500000       0.25000000 </v>
   <v>      -0.12500000       0.12500000       0.25000000 </v>
   <v>       0.00000000       0.25000000       0.25000000 </v>
   <v>       0.12500000       0.25000000       0.25000000 </v>
   <v>       0.25000000       0.25000000       0.25000000 </v>
   <v>       0.37500000       0.25000000       0.25000000 </v>
   <v>       0.50000000       0.25000000       0.25000000 </v>
   <v>      -0.37500000       0.25000000       0.25000000 </v>
   <v>      -0.25000000       0.25000000       0.25000000 </v>
   <v>      -0.12500000       0.25000000       0.25000000 </v>
   <v>       0.00000000       0.37500000       0.25000000 </v>
   <v>       0.12500000       0.37500000       0.25000000 </v>
   <v>       0.25000000       0.37500000       0.25000000 </v>
   <v>       0.37500000       0.37500000       0.25000000 </v>
   <v>       0.50000000       0.37500000       0.25000000 </v>
   <v>      -0.37500000       0.37500000       0.25000000 </v>
   <v>      -0.25000000       0.37500000       0.25000000 </v>
   <v>      -0.12500000       0.37500000       0.25000000 </v>
   <v>       0.00000000       0.50000000       0.25000000 </v>
   <v>       0.12500000       0.50000000       0.25000000 </v>
   <v>       0.25000000       0.50000000       0.25000000 </v>
   <v>       0.37500000       0.50000000       0.25000000 </v>
   <v>       0.50000000       0.50000000       0.25000000 </v>
   <v>      -0.37500000       0.50000000       0.25000000 </v>
   <v>      -0.25000000       0.50000000       0.25000000 </v>
   <v>      -0.12500000       0.50000000       0.25000000 </v>
   <v>      -0.00000000      -0.37500000       0.25000000 </v>
   <v>       0.12500000      -0.37500000       0.25000000 </v>
   <v>       0.25000000      -0.37500000       0.25000000 </v>
   <v>       0.37500000      -0.37500000       0.25000000 </v>
   <v>       0.50000000      -0.37500000       0.25000000 </v>
   <v>      -0.37500000      -0.37500000       0.25000000 </v>
   <v>      -0.25000000      -0.37500000       0.25000000 </v>
   <v>      -0.12500000      -0.37500000       0.25000000 </v>
   <v>      -0.00000000      -0.25000000       0.25000000 </v>
   <v>       0.12500000      -0.25000000       0.25000000 </v>
   <v>       0.25000000      -0.25000000       0.25000000 </v>
   <v>       0.37500000      -0.25000000       0.25000000 </v>
   <v>       0.50000000      -0.25000000       0.25000000 </v>
   <v>      -0.37500000      -0.25000000       0.25000000 </v>
   <v>      -0.25000000      -0.25000000       0.25000000 </v>
   <v>      -0.12500000      -0.25000000       0.25000000 </v>
   <v>      -0.00000000      -0.12500000       0.25000000 </v>
   <v>       0.12500000      -0.12500000       0.25000000 </v>
   <v>       0.25000000      -0.12500000       0.25000000 </v>
   <v>       0.37500000      -0.12500000       0.25000000 </v>
   <v>       0.50000000      -0.12500000       0.25000000 </v>
   <v>      -0.37500000      -0.12500000       0.25000000 </v>
   <v>      -0.25000000      -0.12500000       0.25000000 </v>
   <v>      -0.12500000      -0.12500000       0.25000000 </v>
   <v>       0.00000000       0.00000000       0.33333333 </v>
   <v>       0.12500000       0.00000000       0.33333333 </v>
   <v>       0.25000000       0.00000000       0.33333333 </v>
   <v>       0.37500000       0.00000000       0.33333333 </v>
   <v>       0.50000000       0.00000000       0.33333333 </v>
   <v>      -0.37500000      -0.00000000       0.33333333 </v>
   <v>      -0.25000000      -0.00000000       0.33333333 </v>
   <v>      -0.12500000      -0.00000000       0.33333333 </v>
   <v>       0.00000000       0.12500000       0.33333333 </v>
   <v>       0.12500000       0.12500000       0.33333333 </v>
   <v>       0.25000000       0.12500000       0.33333333 </v>
   <v>       0.37500000       0.12500000       0.33333333 </v>
   <v>       0.50000000       0.12500000       0.33333333 </v>
   <v>      -0.37500000       0.12500000       0.33333333 </v>
   <v>      -0.25000000       0.12500000       0.33333333 </v>
   <v>      -0.12500000       0.12500000       0.33333333 </v>
   <v>       0.00000000       0.25000000       0.33333333 </v>
   <v>       0.12500000       0.25000000       0.33333333 </v>
   <v>       0.25000000       0.25000000       0.33333333 </v>
   <v>       0.37500000       0.25000000       0.33333333 </v>
   <v>       0.50000000       0.25000000       0.33333333 </v>
   <v>      -0.37500000       0.25000000       0.33333333 </v>
   <v>      -0.25000000       0.25000000       0.33333333 </v>
   <v>      -0.12500000       0.25000000       0.33333333 </v>
   <v>       0.00000000       0.37500000       0.33333333 </v>
   <v>       0.12500000       0.37500000       0.33333333 </v>
   <v>       0.25000000       0.37500000       0.33333333 </v>
   <v>       0.37500000       0.37500000       0.33333333 </v>
   <v>       0.50000000       0.37500000       0.33333333 </v>
   <v>      -0.37500000       0.37500000       0.33333333 </v>
   <v>      -0.25000000       0.37500000       0.33333333 </v>
   <v>      -0.12500000       0.37500000       0.33333333 </v>
   <v>       0.00000000       0.50000000       0.33333333 </v>
   <v>       0.12500000       0.50000000       0.33333333 </v>
   <v>       0.25000000       0.50000000       0.33333333 </v>
   <v>       0.37500000       0.50000000       0.33333333 </v>
   <v>       0.50000000       0.50000000       0.33333333 </v>
   <v>      -0.37500000       0.50000000       0.33333333 </v>
   <v>      -0.25000000       0.50000000       0.33333333 </v>
   <v>      -0.12500000       0.50000000       0.33333333 </v>
   <v>      -0.00000000      -0.37500000       0.33333333 </v>
   <v>       0.12500000      -0.37500000       0.33333333 </v>
   <v>       0.25000000      -0.37500000       0.33333333 </v>
   <v>       0.37500000      -0.37500000       0.33333333 </v>
   <v>       0.50000000      -0.37500000       0.33333333 </v>
   <v>      -0.37500000      -0.37500000       0.33333333 </v>
   <v>      -0.25000000      -0.37500000       0.33333333 </v>
   <v>      -0.12500000      -0.37500000       0.33333333 </v>
   <v>      -0.00000000      -0.25000000       0.33333333 </v>
   <v>       0.12500000      -0.25000000       0.33333333 </v>
   <v>       0.25000000      -0.25000000       0.33333333 </v>
   <v>       0.37500000      -0.25000000       0.33333333 </v>
   <v>       0.50000000      -0.25000000       0.33333333 </v>
   <v>      -0.37500000      -0.25000000       0.33333333 </v>
   <v>      -0.25000000      -0.25000000       0.33333333 </v>
   <v>      -0.12500000      -0.25000000       0.33333333 </v>
   <v>      -0.00000000      -0.12500000       0.33333333 </v>
   <v>       0.12500000      -0.12500000       0.33333333 </v>
   <v>       0.25000000      -0.12500000       0.33333333 </v>
   <v>       0.37500000      -0.12500000       0.33333333 </v>
   <v>       0.50000000      -0.12500000       0.33333333 </v>
   <v>      -0.37500000      -0.12500000       0.33333333 </v>
   <v>      -0.25000000      -0.12500000       0.33333333 </v>
   <v>      -0.12500000      -0.12500000       0.33333333 </v>
   <v>       0.00000000       0.00000000       0.41666667 </v>
   <v>       0.12500000       0.00000000       0.41666667 </v>
   <v>       0.25000000       0.00000000       0.41666667 </v>
   <v>       0.37500000       0.00000000       0.41666667 </v>
   <v>       0.50000000       0.00000000       0.41666667 </v>
   <v>      -0.37500000      -0.00000000       0.41666667 </v>
   <v>      -0.25000000      -0.00000000       0.41666667 </v>
   <v>      -0.12500000      -0.00000000       0.41666667 </v>
   <v>       0.00000000       0.12500000       0.41666667 </v>
   <v>       0.12500000       0.12500000       0.41666667 </v>
   <v>       0.25000000       0.12500000       0.41666667 </v>
   <v>       0.37500000       0.12500000       0.41666667 </v>
   <v>       0.50000000       0.12500000       0.41666667 </v>
   <v>      -0.37500000       0.12500000       0.41666667 </v>
   <v>      -0.25000000       0.12500000       0.41666667 </v>
   <v>      -0.12500000       0.12500000       0.41666667 </v>
   <v>       0.00000000       0.25000000       0.41666667 </v>
   <v>       0.12500000       0.25000000       0.41666667 </v>
   <v>       0.25000000       0.25000000       0.41666667 </v>
   <v>       0.37500000       0.25000000       0.41666667 </v>
   <v>       0.50000000       0.25000000       0.41666667 </v>
   <v>      -0.37500000       0.25000000       0.41666667 </v>
   <v>      -0.25000000       0.25000000       0.41666667 </v>
   <v>      -0.12500000       0.25000000       0.41666667 </v>
   <v>       0.00000000       0.37500000       0.41666667 </v>
   <v>       0.12500000       0.37500000       0.41666667 </v>
   <v>       0.25000000       0.37500000       0.41666667 </v>
   <v>       0.37500000       0.37500000       0.41666667 </v>
   <v>       0.50000000       0.37500000       0.41666667 </v>
   <v>      -0.37500000       0.37500000       0.41666667 </v>
   <v>      -0.25000000       0.37500000       0.41666667 </v>
   <v>      -0.12500000       0.37500000       0.41666667 </v>
   <v>       0.00000000       0.50000000       0.41666667 </v>
   <v>       0.12500000       0.50000000       0.41666667 </v>
   <v>       0.25000000       0.50000000       0.41666667 </v>
   <v>       0.37500000       0.50000000       0.41666667 </v>
   <v>       0.50000000       0.50000000       0.41666667 </v>
   <v>      -0.37500000       0.50000000       0.41666667 </v>
   <v>      -0.25000000       0.50000000       0.41666667 </v>
   <v>      -0.12500000       0.50000000       0.41666667 </v>
   <v>      -0.00000000      -0.37500000       0.41666667 </v>
   <v>       0.12500000      -0.37500000       0.41666667 </v>
   <v>       0.25000000      -0.37500000       0.41666667 </v>
   <v>       0.37500000      -0.37500000       0.41666667 </v>
   <v>       0.50000000      -0.37500000       0.41666667 </v>
   <v>      -0.37500000      -0.37500000       0.41666667 </v>
   <v>      -0.25000000      -0.37500000       0.41666667 </v>
   <v>      -0.12500000      -0.37500000       0.41666667 </v>
   <v>      -0.00000000      -0.25000000       0.41666667 </v>
   <v>       0.12500000      -0.25000000       0.41666667 </v>
   <v>       0.25000000      -0.25000000       0.41666667 </v>
   <v>       0.37500000      -0.25000000       0.41666667 </v>
   <v>       0.50000000      -0.25000000       0.41666667 </v>
   <v>      -0.37500000      -0.25000000       0.41666667 </v>
   <v>      -0.25000000      -0.25000000       0.41666667 </v>
   <v>      -0.12500000      -0.25000000       0.41666667 </v>
   <v>      -0.00000000      -0.12500000       0.41666667 </v>
   <v>       0.12500000      -0.12500000       0.41666667 </v>
   <v>       0.25000000      -0.12500000       0.41666667 </v>
   <v>       0.37500000      -0.12500000       0.41666667 </v>
   <v>       0.50000000      -0.12500000       0.41666667 </v>
   <v>      -0.37500000      -0.12500000       0.41666667 </v>
   <v>      -0.25000000      -0.12500000       0.41666667 </v>
   <v>      -0.12500000      -0.12500000       0.41666667 </v>
   <v>       0.00000000       0.00000000       0.50000000 </v>
   <v>       0.12500000       0.00000000       0.50000000 </v>
   <v>       0.25000000       0.00000000       0.50000000 </v>
   <v>       0.37500000       0.00000000       0.50000000 </v>
   <v>       0.50000000       0.00000000       0.50000000 </v>
   <v>       0.00000000       0.12500000       0.50000000 </v>
   <v>       0.12500000       0.12500000       0.50000000 </v>
   <v>       0.25000000       0.12500000       0.50000000 </v>
   <v>       0.37500000       0.12500000       0.50000000 </v>
   <v>       0.50000000       0.12500000       0.50000000 </v>
   <v>      -0.37500000       0.12500000       0.50000000 </v>
   <v>      -0.25000000       0.12500000       0.50000000 </v>
   <v>      -0.12500000       0.12500000       0.50000000 </v>
   <v>       0.00000000       0.25000000       0.50000000 </v>
   <v>       0.12500000       0.25000000       0.50000000 </v>
   <v>       0.25000000       0.25000000       0.50000000 </v>
   <v>       0.37500000       0.25000000       0.50000000 </v>
   <v>       0.50000000       0.25000000       0.50000000 </v>
   <v>      -0.37500000       0.25000000       0.50000000 </v>
   <v>      -0.25000000       0.25000000       0.50000000 </v>
   <v>      -0.12500000       0.25000000       0.50000000 </v>
   <v>       0.00000000       0.37500000       0.50000000 </v>
   <v>       0.12500000       0.37500000       0.50000000 </v>
   <v>       0.25000000       0.37500000       0.50000000 </v>
   <v>       0.37500000       0.37500000       0.50000000 </v>
   <v>       0.50000000       0.37500000       0.50000000 </v>
   <v>      -0.37500000       0.37500000       0.50000000 </v>
   <v>      -0.25000000       0.37500000       0.50000000 </v>
   <v>      -0.12500000       0.37500000       0.50000000 </v>
   <v>       0.00000000       0.50000000       0.50000000 </v>
   <v>       0.12500000       0.50000000       0.50000000 </v>
   <v>       0.25000000       0.50000000       0.50000000 </v>
   <v>       0.37500000       0.50000000       0.50000000 </v>
   <v>       0.50000000       0.50000000       0.50000000 </v>
  </varray>
  <varray name="weights" >
   <v>       0.00130208 </v>
   <v>       0.00260417 </v>
   <v>       0.00260417 </v>
   <v>       0.00260417 </v>
   <v>       0.00130208 </v>
   <v>       0.00260417 </v>
   <v>       0.00260417 </v>
   <v>       0.00260417 </v>
   <v>       0.00260417 </v>
   <v>       0.00260417 </v>
   <v>       0.00260417 </v>
   <v>       0.00260417 </v>
   <v>       0.00260417 </v>
   <v>       0.00260417 </v>
   <v>       0.00260417 </v>
   <v>       0.00260417 </v>
   <v>       0.00260417 </v>
   <v>       0.00260417 </v>
   <v>       0.00260417 </v>
   <v>       0.00260417 </v>
   <v>       0.00260417 </v>
   <v>       0.00260417 </v>
   <v>       0.00260417 </v>
   <v>       0.00260417 </v>
   <v>       0.00260417 </v>
   <v>       0.00260417 </v>
   <v>       0.00260417 </v>
   <v>       0.00260417 </v>
   <v>       0.00260417 </v>
   <v>       0.00130208 </v>
   <v>       0.00260417 </v>
   <v>       0.00260417 </v>
   <v>       0.00260417 </v>
   <v>       0.00130208 </v>
   <v>       0.00260417 </v>
   <v>       0.00260417 </v>
   <v>       0.00260417 </v>
   <v>       0.00260417 </v>
   <v>       0.00260417 </v>
   <v>       0.00260417 </v>
   <v>       0.00260417 </v>
   <v>       0.00260417 </v>
   <v>       0.00260417 </v>
   <v>       0.00260417 </v>
   <v>       0.00260417 </v>
   <v>       0.00260417 </v>
   <v>       0.00260417 </v>
   <v>       0.00260417 </v>
   <v>       0.00260417 </v>
   <v>       0.00260417 </v>
   <v>       0.00260417 </v>
   <v>       0.00260417 </v>
   <v>       0.00260417 </v>
   <v>       0.00260417 </v>
   <v>       0.00260417 </v>
   <v>       0.00260417 </v>
   <v>       0.00260417 </v>
   <v>       0.00260417 </v>
   <v>       0.00260417 </v>
   <v>       0.00260417 </v>
   <v>       0.00260417 </v>
   <v>       0.00260417 </v>
   <v>       0.00260417 </v>
   <v>       0.00260417 </v>
   <v>       0.00260417 </v>
   <v>       0.00260417 </v>
   <v>       0.00260417 </v>
   <v>       0.00260417 </v>
   <v>       0.00260417 </v>
   <v>       0.00260417 </v>
   <v>       0.00260417 </v>
   <v>       0.00260417 </v>
   <v>       0.00260417 </v>
   <v>       0.00260417 </v>
   <v>       0.00260417 </v>
   <v>       0.00260417 </v>
   <v>       0.00260417 </v>
   <v>       0.00260417 </v>
   <v>       0.00260417 </v>
   <v>       0.00260417 </v>
   <v>       0.00260417 </v>
   <v>       0.00260417 </v>
   <v>       0.00260417 </v>
   <v>       0.00260417 </v>
   <v>       0.00260417 </v>
   <v>       0.00260417 </v>
   <v>       0.00260417 </v>
   <v>       0.00260417 </v>
   <v>       0.00260417 </v>
   <v>       0.00260417 </v>
   <v>       0.00260417 </v>
   <v>       0.00260417 </v>
   <v>       0.00260417 </v>
   <v>       0.00260417 </v>
   <v>       0.00260417 </v>
   <v>       0.00260417 </v>
   <v>       0.00260417 </v>
   <v>       0.00260417 </v>
   <v>       0.00260417 </v>
   <v>       0.00260417 </v>
   <v>       0.00260417 </v>
   <v>       0.00260417 </v>
   <v>       0.00260417 </v>
   <v>       0.00260417 </v>
   <v>       0.00260417 </v>
   <v>       0.00260417 </v>
   <v>       0.00260417 </v>
   <v>       0.00260417 </v>
   <v>       0.00260417 </v>
   <v>       0.00260417 </v>
   <v>       0.00260417 </v>
   <v>       0.00260417 </v>
   <v>       0.00260417 </v>
   <v>       0.00260417 </v>
   <v>       0.00260417 </v>
   <v>       0.00260417 </v>
   <v>       0.00260417 </v>
   <v>       0.00260417 </v>
   <v>       0.00260417 </v>
   <v>       0.00260417 </v>
   <v>       0.00260417 </v>
   <v>       0.00260417 </v>
   <v>       0.00260417 </v>
   <v>       0.00260417 </v>
   <v>       0.00260417 </v>
   <v>       0.00260417 </v>
   <v>       0.00260417 </v>
   <v>       0.00260417 </v>
   <v>       0.00260417 </v>
   <v>       0.00260417 </v>
   <v>       0.00260417 </v>
   <v>       0.00260417 </v>
   <v>       0.00260417 </v>
   <v>       0.00260417 </v>
   <v>       0.00260417 </v>
   <v>       0.00260417 </v>
   <v>       0.00260417 </v>
   <v>       0.00260417 </v>
   <v>       0.00260417 </v>
   <v>       0.00260417 </v>
   <v>       0.00260417 </v>
   <v>       0.00260417 </v>
   <v>       0.00260417 </v>
   <v>       0.00260417 </v>
   <v>       0.00260417 </v>
   <v>       0.00260417 </v>
   <v>       0.00260417 </v>
   <v>       0.00260417 </v>
   <v>       0.00260417 </v>
   <v>       0.00260417 </v>
   <v>       0.00260417 </v>
   <v>       0.00260417 </v>
   <v>       0.00260417 </v>
   <v>       0.00260417 </v>
   <v>       0.00260417 </v>
   <v>       0.00260417 </v>
   <v>       0.00260417 </v>
   <v>       0.00260417 </v>
   <v>       0.00260417 </v>
   <v>       0.00260417 </v>
   <v>       0.00260417 </v>
   <v>       0.00260417 </v>
   <v>       0.00260417 </v>
   <v>       0.00260417 </v>
   <v>       0.00260417 </v>
   <v>       0.00260417 </v>
   <v>       0.00260417 </v>
   <v>       0.00260417 </v>
   <v>       0.00260417 </v>
   <v>       0.00260417 </v>
   <v>       0.00260417 </v>
   <v>       0.00260417 </v>
   <v>       0.00260417 </v>
   <v>       0.00260417 </v>
   <v>       0.00260417 </v>
   <v>       0.00260417 </v>
   <v>       0.00260417 </v>
   <v>       0.00260417 </v>
   <v>       0.00260417 </v>
   <v>       0.00260417 </v>
   <v>       0.00260417 </v>
   <v>       0.00260417 </v>
   <v>       0.00260417 </v>
   <v>       0.00260417 </v>
   <v>       0.00260417 </v>
   <v>       0.00260417 </v>
   <v>       0.00260417 </v>
   <v>       0.00260417 </v>
   <v>       0.00260417 </v>
   <v>       0.00260417 </v>
   <v>       0.00260417 </v>
   <v>       0.00260417 </v>
   <v>       0.00260417 </v>
   <v>       0.00260417 </v>
   <v>       0.00260417 </v>
   <v>       0.00260417 </v>
   <v>       0.00260417 </v>
   <v>       0.00260417 </v>
   <v>       0.00260417 </v>
   <v>       0.00260417 </v>
   <v>       0.00260417 </v>
   <v>       0.00260417 </v>
   <v>       0.00260417 </v>
   <v>       0.00260417 </v>
   <v>       0.00260417 </v>
   <v>       0.00260417 </v>
   <v>       0.00260417 </v>
   <v>       0.00260417 </v>
   <v>       0.00260417 </v>
   <v>       0.00260417 </v>
   <v>       0.00260417 </v>
   <v>       0.00260417 </v>
   <v>       0.00260417 </v>
   <v>       0.00260417 </v>
   <v>       0.00260417 </v>
   <v>       0.00260417 </v>
   <v>       0.00260417 </v>
   <v>       0.00260417 </v>
   <v>       0.00260417 </v>
   <v>       0.00260417 </v>
   <v>       0.00260417 </v>
   <v>       0.00260417 </v>
   <v>       0.00260417 </v>
   <v>       0.00260417 </v>
   <v>       0.00260417 </v>
   <v>       0.00260417 </v>
   <v>       0.00260417 </v>
   <v>       0.00260417 </v>
   <v>       0.00260417 </v>
   <v>       0.00260417 </v>
   <v>       0.00260417 </v>
   <v>       0.00260417 </v>
   <v>       0.00260417 </v>
   <v>       0.00260417 </v>
   <v>       0.00260417 </v>
   <v>       0.00260417 </v>
   <v>       0.00260417 </v>
   <v>       0.00260417 </v>
   <v>       0.00260417 </v>
   <v>       0.00260417 </v>
   <v>       0.00260417 </v>
   <v>       0.00260417 </v>
   <v>       0.00260417 </v>
   <v>       0.00260417 </v>
   <v>       0.00260417 </v>
   <v>       0.00260417 </v>
   <v>       0.00260417 </v>
   <v>       0.00260417 </v>
   <v>       0.00260417 </v>
   <v>       0.00260417 </v>
   <v>       0.00260417 </v>
   <v>       0.00260417 </v>
   <v>       0.00260417 </v>
   <v>       0.00260417 </v>
   <v>       0.00260417 </v>
   <v>       0.00260417 </v>
   <v>       0.00260417 </v>
   <v>       0.00260417 </v>
   <v>       0.00260417 </v>
   <v>       0.00260417 </v>
   <v>       0.00260417 </v>
   <v>       0.00260417 </v>
   <v>       0.00260417 </v>
   <v>       0.00260417 </v>
   <v>       0.00260417 </v>
   <v>       0.00260417 </v>
   <v>       0.00260417 </v>
   <v>       0.00260417 </v>
   <v>       0.00260417 </v>
   <v>       0.00260417 </v>
   <v>       0.00260417 </v>
   <v>       0.00260417 </v>
   <v>       0.00260417 </v>
   <v>       0.00260417 </v>
   <v>       0.00260417 </v>
   <v>       0.00260417 </v>
   <v>       0.00260417 </v>
   <v>       0.00260417 </v>
   <v>       0.00260417 </v>
   <v>       0.00260417 </v>
   <v>       0.00260417 </v>
   <v>       0.00260417 </v>
   <v>       0.00260417 </v>
   <v>       0.00260417 </v>
   <v>       0.00260417 </v>
   <v>       0.00260417 </v>
   <v>       0.00260417 </v>
   <v>       0.00260417 </v>
   <v>       0.00260417 </v>
   <v>       0.00260417 </v>
   <v>       0.00260417 </v>
   <v>       0.00260417 </v>
   <v>       0.00260417 </v>
   <v>       0.00260417 </v>
   <v>       0.00260417 </v>
   <v>       0.00260417 </v>
   <v>       0.00260417 </v>
   <v>       0.00260417 </v>
   <v>       0.00260417 </v>
   <v>       0.00260417 </v>
   <v>       0.00260417 </v>
   <v>       0.00260417 </v>
   <v>       0.00260417 </v>
   <v>       0.00260417 </v>
   <v>       0.00260417 </v>
   <v>       0.00260417 </v>
   <v>       0.00260417 </v>
   <v>       0.00260417 </v>
   <v>       0.00260417 </v>
   <v>       0.00260417 </v>
   <v>       0.00260417 </v>
   <v>       0.00260417 </v>
   <v>       0.00260417 </v>
   <v>       0.00260417 </v>
   <v>       0.00260417 </v>
   <v>       0.00260417 </v>
   <v>       0.00260417 </v>
   <v>       0.00260417 </v>
   <v>       0.00260417 </v>
   <v>       0.00260417 </v>
   <v>       0.00260417 </v>
   <v>       0.00260417 </v>
   <v>       0.00260417 </v>
   <v>       0.00260417 </v>
   <v>       0.00260417 </v>
   <v>       0.00260417 </v>
   <v>       0.00260417 </v>
   <v>       0.00260417 </v>
   <v>       0.00260417 </v>
   <v>       0.00260417 </v>
   <v>       0.00260417 </v>
   <v>       0.00260417 </v>
   <v>       0.00260417 </v>
   <v>       0.00260417 </v>
   <v>       0.00260417 </v>
   <v>       0.00260417 </v>
   <v>       0.00260417 </v>
   <v>       0.00260417 </v>
   <v>       0.00260417 </v>
   <v>       0.00260417 </v>
   <v>       0.00260417 </v>
   <v>       0.00260417 </v>
   <v>       0.00260417 </v>
   <v>       0.00260417 </v>
   <v>       0.00260417 </v>
   <v>       0.00260417 </v>
   <v>       0.00260417 </v>
   <v>       0.00260417 </v>
   <v>       0.00260417 </v>
   <v>       0.00260417 </v>
   <v>       0.00260417 </v>
   <v>       0.00260417 </v>
   <v>       0.00260417 </v>
   <v>       0.00260417 </v>
   <v>       0.00130208 </v>
   <v>       0.00260417 </v>
   <v>       0.00260417 </v>
   <v>       0.00260417 </v>
   <v>       0.00130208 </v>
   <v>       0.00260417 </v>
   <v>       0.00260417 </v>
   <v>       0.00260417 </v>
   <v>       0.00260417 </v>
   <v>       0.00260417 </v>
   <v>       0.00260417 </v>
   <v>       0.00260417 </v>
   <v>       0.00260417 </v>
   <v>       0.00260417 </v>
   <v>       0.00260417 </v>
   <v>       0.00260417 </v>
   <v>       0.00260417 </v>
   <v>       0.00260417 </v>
   <v>       0.00260417 </v>
   <v>       0.00260417 </v>
   <v>       0.00260417 </v>
   <v>       0.00260417 </v>
   <v>       0.00260417 </v>
   <v>       0.00260417 </v>
   <v>       0.00260417 </v>
   <v>       0.00260417 </v>
   <v>       0.00260417 </v>
   <v>       0.00260417 </v>
   <v>       0.00260417 </v>
   <v>       0.00130208 </v>
   <v>       0.00260417 </v>
   <v>       0.00260417 </v>
   <v>       0.00260417 </v>
   <v>       0.00130208 </v>
  </varray>
 </kpoints>
 <parameters>
  <separator name="general" >
   <i type="string" name="SYSTEM">unknown system</i>
   <i type="logical" name="LCOMPAT"> F  </i>
  </separator>
  <separator name="electronic" >
   <i type="string" name="PREC">accura</i>
   <i name="ENMAX">    520.00000000</i>
   <i name="ENAUG">    449.70400000</i>
   <i name="EDIFF">      0.00000001</i>
   <i type="int" name="IALGO">    38</i>
   <i type="int" name="IWAVPR">    11</i>
   <i type="int" name="NBANDS">    24</i>
   <i name="NELECT">     40.00000000</i>
   <i type="int" name="TURBO">     0</i>
   <i type="int" name="IRESTART">     0</i>
   <i type="int" name="NREBOOT">     0</i>
   <i type="int" name="NMIN">     0</i>
   <i name="EREF">      0.00000000</i>
   <separator name="electronic smearing" >
    <i type="int" name="ISMEAR">     0</i>
    <i name="SIGMA">      0.01000000</i>
    <i name="KSPACING">      0.50000000</i>
    <i type="logical" name="KGAMMA"> T  </i>
   </separator>
   <separator name="electronic projectors" >
    <i type="logical" name="LREAL"> F  </i>
    <v name="ROPT">      0.00000000      0.00000000</v>
    <i type="int" name="LMAXPAW">  -100</i>
    <i type="int" name="LMAXMIX">     2</i>
    <i type="logical" name="NLSPLINE"> F  </i>
   </separator>
   <separator name="electronic startup" >
    <i type="int" name="ISTART">     0</i>
    <i type="int" name="ICHARG">     2</i>
    <i type="int" name="INIWAV">     1</i>
   </separator>
   <separator name="electronic spin" >
    <i type="int" name="ISPIN">     1</i>
    <i type="logical" name="LNONCOLLINEAR"> F  </i>
    <v name="MAGMOM">      1.00000000      1.00000000      1.00000000      1.00000000</v>
    <i name="NUPDOWN">     -1.00000000</i>
    <i type="logical" name="LSORBIT"> F  </i>
    <v name="SAXIS">      0.00000000      0.00000000      1.00000000</v>
    <i type="logical" name="LSPIRAL"> F  </i>
    <v name="QSPIRAL">      0.00000000      0.00000000      0.00000000</v>
    <i type="logical" name="LZEROZ"> F  </i>
   </separator>
   <separator name="electronic exchange-correlation" >
    <i type="logical" name="LASPH"> F  </i>
    <i type="logical" name="LMETAGGA"> F  </i>
   </separator>
   <separator name="electronic convergence" >
    <i type="int" name="NELM">   100</i>
    <i type="int" name="NELMDL">    -5</i>
    <i type="int" name="NELMIN">     2</i>
    <i name="ENINI">    520.00000000</i>
    <separator name="electronic convergence detail" >
     <i type="logical" name="LDIAG"> T  </i>
     <i type="logical" name="LSUBROT"> F  </i>
     <i name="WEIMIN">      0.00100000</i>
     <i name="EBREAK">      0.00000000</i>
     <i name="DEPER">      0.30000000</i>
     <i type="int" name="NRMM">     4</i>
     <i name="TIME">      0.40000000</i>
    </separator>
   </separator>
   <separator name="electronic mixer" >
    <i name="AMIX">      0.40000000</i>
    <i name="BMIX">      1.00000000</i>
    <i name="AMIN">      0.10000000</i>
    <i name="AMIX_MAG">      1.60000000</i>
    <i name="BMIX_MAG">      1.00000000</i>
    <separator name="electronic mixer details" >
     <i type="int" name="IMIX">     4</i>
     <i type="logical" name="MIXFIRST"> F  </i>
     <i type="int" name="MAXMIX">   -45</i>
     <i name="WC">    100.00000000</i>
     <i type="int" name="INIMIX">     1</i>
     <i type="int" name="MIXPRE">     1</i>
     <i type="int" name="MREMOVE">     5</i>
    </separator>
   </separator>
   <separator name="electronic dipolcorrection" >
    <i type="logical" name="LDIPOL"> F  </i>
    <i type="logical" name="LMONO"> F  </i>
    <i type="int" name="IDIPOL">     0</i>
    <i name="EPSILON">      1.00000000</i>
    <v name="DIPOL">   -100.00000000   -100.00000000   -100.00000000</v>
    <i name="EFIELD">      0.00000000</i>
   </separator>
  </separator>
  <separator name="grids" >
   <i type="int" name="NGX">    54</i>
   <i type="int" name="NGY">    54</i>
   <i type="int" name="NGZ">    36</i>
   <i type="int" name="NGXF">   108</i>
   <i type="int" name="NGYF">   108</i>
   <i type="int" name="NGZF">    72</i>
   <i type="logical" name="ADDGRID"> F  </i>
  </separator>
  <separator name="ionic" >
   <i type="int" name="NSW">     1</i>
   <i type="int" name="IBRION">     8</i>
   <i type="int" name="MDALGO">     0</i>
   <i type="int" name="ISIF">     2</i>
   <i name="PSTRESS">      0.00000000</i>
   <i name="EDIFFG">      0.00000010</i>
   <i type="int" name="NFREE">     0</i>
   <i name="POTIM">      0.50000000</i>
   <i name="SMASS">     -3.00000000</i>
   <i name="SCALEE">      1.00000000</i>
  </separator>
  <separator name="ionic md" >
   <i name="TEBEG">      0.00010000</i>
   <i name="TEEND">      0.00010000</i>
   <i type="int" name="NBLOCK">     1</i>
   <i type="int" name="KBLOCK">     1</i>
   <i type="int" name="NPACO">   256</i>
   <i name="APACO">     16.00000000</i>
  </separator>
  <separator name="symmetry" >
   <i type="int" name="ISYM">     2</i>
   <i name="SYMPREC">      0.00000001</i>
  </separator>
  <separator name="dos" >
   <i type="int" name="LORBIT">     0</i>
   <v name="RWIGS">     -1.00000000     -1.00000000</v>
   <i type="int" name="NEDOS">   301</i>
   <i name="EMIN">     10.00000000</i>
   <i name="EMAX">    -10.00000000</i>
   <i name="EFERMI">      0.00000000</i>
  </separator>
  <separator name="writing" >
   <i type="int" name="NWRITE">     2</i>
   <i type="logical" name="LWAVE"> F  </i>
   <i type="logical" name="LDOWNSAMPLE"> F  </i>
   <i type="logical" name="LCHARG"> T  </i>
   <i type="logical" name="LPARD"> F  </i>
   <i type="logical" name="LVTOT"> F  </i>
   <i type="logical" name="LVHAR"> F  </i>
   <i type="logical" name="LELF"> F  </i>
   <i type="logical" name="LOPTICS"> F  </i>
   <v name="STM">      0.00000000      0.00000000      0.00000000      0.00000000      0.00000000      0.00000000      0.00000000</v>
  </separator>
  <separator name="performance" >
   <i type="int" name="NPAR">     8</i>
   <i type="int" name="NSIM">     4</i>
   <i type="int" name="NBLK">    -1</i>
   <i type="logical" name="LPLANE"> T  </i>
   <i type="logical" name="LSCALAPACK"> T  </i>
   <i type="logical" name="LSCAAWARE"> F  </i>
   <i type="logical" name="LSCALU"> F  </i>
   <i type="logical" name="LASYNC"> F  </i>
   <i type="logical" name="LORBITALREAL"> F  </i>
  </separator>
  <separator name="miscellaneous" >
   <i type="int" name="IDIOT">     3</i>
   <i type="int" name="ISPECIAL">     0</i>
   <i type="logical" name="LMUSIC"> F  </i>
   <v name="POMASS">    114.82000000    126.90400000</v>
   <v name="DARWINR">      0.00000000      0.00000000</v>
   <v name="DARWINV">      1.00000000      1.00000000</v>
   <i type="logical" name="LCORR"> T  </i>
  </separator>
  <i type="logical" name="GGA_COMPAT"> T  </i>
  <i type="logical" name="LBERRY"> F  </i>
  <i type="int" name="ICORELEVEL">     0</i>
  <i type="logical" name="LDAU"> F  </i>
  <i type="int" name="I_CONSTRAINED_M">     0</i>
  <separator name="electronic exchange-correlation" >
   <i type="string" name="GGA">--</i>
   <i type="int" name="VOSKOWN">     0</i>
   <i type="logical" name="LHFCALC"> F  </i>
   <i type="string" name="PRECFOCK"></i>
   <i type="logical" name="LSYMGRAD"> F  </i>
   <i type="logical" name="LHFONE"> F  </i>
   <i type="logical" name="LRHFCALC"> F  </i>
   <i type="logical" name="LTHOMAS"> F  </i>
   <i type="logical" name="LMODELHF"> F  </i>
   <i name="ENCUT4O">     -1.00000000</i>
   <i type="int" name="EXXOEP">     0</i>
   <i type="int" name="FOURORBIT">     0</i>
   <i name="AEXX">      0.00000000</i>
   <i name="HFALPHA">      0.00000000</i>
   <i name="MCALPHA">      0.00000000</i>
   <i name="ALDAX">      1.00000000</i>
   <i name="AGGAX">      1.00000000</i>
   <i name="ALDAC">      1.00000000</i>
   <i name="AGGAC">      1.00000000</i>
   <i type="int" name="NKREDX">     1</i>
   <i type="int" name="NKREDY">     1</i>
   <i type="int" name="NKREDZ">     1</i>
   <i type="logical" name="SHIFTRED"> F  </i>
   <i type="logical" name="ODDONLY"> F  </i>
   <i type="logical" name="EVENONLY"> F  </i>
   <i type="int" name="LMAXFOCK">     0</i>
   <i type="int" name="NMAXFOCKAE">     0</i>
   <i type="logical" name="LFOCKAEDFT"> F  </i>
   <i name="HFSCREEN">      0.00000000</i>
   <i name="HFSCREENC">      0.00000000</i>
   <i type="int" name="NBANDSGWLOW">     0</i>
  </separator>
  <separator name="vdW DFT" >
   <i type="logical" name="LUSE_VDW"> F  </i>
   <i name="Zab_VDW">     -0.84910000</i>
   <i name="PARAM1">      0.12340000</i>
   <i name="PARAM2">      1.00000000</i>
   <i name="PARAM3">      0.00000000</i>
  </separator>
  <separator name="model GW" >
   <i type="int" name="MODEL_GW">     0</i>
   <i name="MODEL_EPS0">     22.66793155</i>
   <i name="MODEL_ALPHA">      1.00000000</i>
  </separator>
  <separator name="linear response parameters" >
   <i type="logical" name="LEPSILON"> T  </i>
   <i type="logical" name="LRPA"> F  </i>
   <i type="logical" name="LNABLA"> F  </i>
   <i type="logical" name="LVEL"> F  </i>
   <i type="int" name="KINTER">     0</i>
   <i name="CSHIFT">      0.10000000</i>
   <i name="OMEGAMAX">     -1.00000000</i>
   <i name="DEG_THRESHOLD">      0.00200000</i>
   <i name="RTIME">     -0.10000000</i>
   <i name="WPLASMAI">      0.00000000</i>
   <v name="DFIELD">      0.00000000      0.00000000      0.00000000</v>
   <v name="WPLASMA">      0.00000000      0.00000000      0.00000000      0.00000000      0.00000000      0.00000000      0.00000000      0.00000000      0.00000000</v>
  </separator>
  <separator name="orbital magnetization" >
   <i type="logical" name="NUCIND"> F  </i>
   <v name="MAGPOS">      0.00000000      0.00000000      0.00000000</v>
   <i type="logical" name="LNICSALL"> T  </i>
   <i type="logical" name="ORBITALMAG"> F  </i>
   <i type="logical" name="LMAGBLOCH"> F  </i>
   <i type="logical" name="LCHIMAG"> F  </i>
   <i type="logical" name="LGAUGE"> T  </i>
   <i type="int" name="MAGATOM">     0</i>
   <v name="MAGDIPOL">      0.00000000      0.00000000      0.00000000</v>
   <v name="AVECCONST">      0.00000000      0.00000000      0.00000000</v>
  </separator>
  <separator name="response functions" >
   <i type="logical" name="LADDER"> F  </i>
   <i type="logical" name="LRPAFORCE"> F  </i>
   <i type="logical" name="LFXC"> F  </i>
   <i type="logical" name="LHARTREE"> T  </i>
   <i type="int" name="IBSE">     0</i>
   <v type="int" name="KPOINT">    -1     0     0     0</v>
   <i type="logical" name="LTCTE"> F  </i>
   <i type="logical" name="LTETE"> F  </i>
   <i type="logical" name="LTRIPLET"> F  </i>
   <i type="logical" name="LFXCEPS"> F  </i>
   <i type="logical" name="LFXHEG"> F  </i>
   <i type="int" name="NATURALO">     2</i>
   <i type="logical" name="L2ORDER"> F  </i>
   <i type="logical" name="LMP2LT"> F  </i>
   <i type="logical" name="LUSEW"> F  </i>
   <i name="ENCUTGW">     -2.00000000</i>
   <i name="ENCUTGWSOFT">     -2.00000000</i>
   <i name="ENCUTLF">     -1.00000000</i>
   <i type="int" name="LMAXMP2">    -1</i>
   <i name="SCISSOR">      0.00000000</i>
   <i type="int" name="NOMEGA">     0</i>
   <i type="int" name="NOMEGAR">     0</i>
   <i type="int" name="NBANDSGW">    -1</i>
   <i type="int" name="NBANDSO">    -1</i>
   <i type="int" name="NBANDSV">    -1</i>
   <i type="int" name="NELM">   100</i>
   <i type="int" name="NELMHF">     1</i>
   <i type="int" name="DIM">     3</i>
   <i type="int" name="ANTIRES">     0</i>
   <i name="OMEGAMAX">    -30.00000000</i>
   <i name="OMEGAMIN">    -30.00000000</i>
   <i name="OMEGATL">   -200.00000000</i>
   <i type="int" name="OMEGAGRID">   140</i>
   <i name="CSHIFT">     -0.10000000</i>
   <i type="logical" name="SELFENERGY"> F  </i>
   <i type="logical" name="LSPECTRAL"> F  </i>
   <i type="logical" name="LSPECTRALGW"> F  </i>
   <i type="logical" name="LSINGLES"> F  </i>
   <i type="logical" name="LFERMIGW"> F  </i>
   <i type="logical" name="ODDONLYGW"> F  </i>
   <i type="logical" name="EVENONLYGW"> F  </i>
   <i type="int" name="NKREDLFX">     1</i>
   <i type="int" name="NKREDLFY">     1</i>
   <i type="int" name="NKREDLFZ">     1</i>
   <i type="int" name="MAXMEM">  2800</i>
   <i type="int" name="TELESCOPE">     0</i>
   <i type="int" name="TAUPAR">     1</i>
   <i type="int" name="OMEGAPAR">    -1</i>
   <i name="LAMBDA">      1.00000000</i>
  </separator>
  <separator name="External order field" >
   <i name="OFIELD_KAPPA">      0.00000000</i>
   <v name="OFIELD_K">      0.00000000      0.00000000      0.00000000</v>
   <i name="OFIELD_Q6_NEAR">      0.00000000</i>
   <i name="OFIELD_Q6_FAR">      0.00000000</i>
   <i name="OFIELD_A">      0.00000000</i>
  </separator>
 </parameters>
 <atominfo>
  <atoms>       4 </atoms>
  <types>       2 </types>
  <array name="atoms" >
   <dimension dim="1">ion</dimension>
   <field type="string">element</field>
   <field type="int">atomtype</field>
   <set>
    <rc><c>In</c><c>   1</c></rc>
    <rc><c>In</c><c>   1</c></rc>
    <rc><c>I </c><c>   2</c></rc>
    <rc><c>I </c><c>   2</c></rc>
   </set>
  </array>
  <array name="atomtypes" >
   <dimension dim="1">type</dimension>
   <field type="int">atomspertype</field>
   <field type="string">element</field>
   <field>mass</field>
   <field>valence</field>
   <field type="string">pseudopotential</field>
   <set>
    <rc><c>   2</c><c>In</c><c>    114.82000000</c><c>     13.00000000</c><c>  PAW_PBE In_d 06Sep2000                </c></rc>
    <rc><c>   2</c><c>I </c><c>    126.90400000</c><c>      7.00000000</c><c>  PAW_PBE I 08Apr2002                   </c></rc>
   </set>
  </array>
 </atominfo>
 <structure name="initialpos" >
  <crystal>
   <varray name="basis" >
    <v>       2.43012168       6.43263155       0.00000000 </v>
    <v>      -2.43012168       6.43263155       0.00000000 </v>
    <v>       0.00000000       0.00000000       4.83363599 </v>
   </varray>
   <i name="volume">    151.11954365 </i>
   <varray name="rec_basis" >
    <v>       0.20575101       0.07772869       0.00000000 </v>
    <v>      -0.20575101       0.07772869       0.00000000 </v>
    <v>       0.00000000       0.00000000       0.20688360 </v>
   </varray>
  </crystal>
  <varray name="positions" >
   <v>       0.60326686       0.60326678       0.75000006 </v>
   <v>       0.39673322       0.39673322       0.25000002 </v>
   <v>       0.85390383       0.85390375       0.75000006 </v>
   <v>       0.14609625       0.14609625       0.25000002 </v>
  </varray>
 </structure>
 <calculation>
  <scstep>
   <time name="dav">   15.52   15.54</time>
   <time name="total">   15.58   15.61</time>
   <energy>
    <i name="alphaZ">     47.44117185 </i>
    <i name="ewald">  -2562.29768425 </i>
    <i name="hartreedc">  -1199.25242854 </i>
    <i name="XCdc">     55.67074983 </i>
    <i name="pawpsdc">   3305.73657212 </i>
    <i name="pawaedc">  -3234.55704155 </i>
    <i name="eentropy">     -0.00010248 </i>
    <i name="bandstr">    135.20708593 </i>
    <i name="atom">   3785.38857276 </i>
    <i name="e_fr_energy">    333.33689567 </i>
    <i name="e_wo_entrp">    333.33699815 </i>
    <i name="e_0_energy">    333.33694691 </i>
   </energy>
  </scstep>
  <scstep>
   <time name="dav">   15.93   15.97</time>
   <time name="total">   15.93   15.97</time>
   <energy>
    <i name="e_fr_energy">     28.21078600 </i>
    <i name="e_wo_entrp">     28.21083611 </i>
    <i name="e_0_energy">     28.21081105 </i>
   </energy>
  </scstep>
  <scstep>
   <time name="dav">   18.83   18.85</time>
   <time name="total">   18.83   18.85</time>
   <energy>
    <i name="e_fr_energy">     -8.72396867 </i>
    <i name="e_wo_entrp">     -8.72396867 </i>
    <i name="e_0_energy">     -8.72396867 </i>
   </energy>
  </scstep>
  <scstep>
   <time name="dav">   17.79   17.84</time>
   <time name="total">   17.79   17.85</time>
   <energy>
    <i name="e_fr_energy">    -10.19927246 </i>
    <i name="e_wo_entrp">    -10.19927246 </i>
    <i name="e_0_energy">    -10.19927246 </i>
   </energy>
  </scstep>
  <scstep>
   <time name="dav">   21.15   21.18</time>
   <time name="total">   22.85   22.88</time>
   <energy>
    <i name="e_fr_energy">    -10.24500948 </i>
    <i name="e_wo_entrp">    -10.24500948 </i>
    <i name="e_0_energy">    -10.24500948 </i>
   </energy>
  </scstep>
  <scstep>
   <time name="dav">   17.76   17.79</time>
   <time name="total">   19.52   19.54</time>
   <energy>
    <i name="e_fr_energy">    -10.09503730 </i>
    <i name="e_wo_entrp">    -10.09503730 </i>
    <i name="e_0_energy">    -10.09503730 </i>
   </energy>
  </scstep>
  <scstep>
   <time name="dav">   20.46   20.51</time>
   <time name="total">   22.22   22.27</time>
   <energy>
    <i name="e_fr_energy">    -10.08659865 </i>
    <i name="e_wo_entrp">    -10.08659865 </i>
    <i name="e_0_energy">    -10.08659865 </i>
   </energy>
  </scstep>
  <scstep>
   <time name="dav">   16.65   16.67</time>
   <time name="total">   18.40   18.43</time>
   <energy>
    <i name="e_fr_energy">    -10.08587074 </i>
    <i name="e_wo_entrp">    -10.08587074 </i>
    <i name="e_0_energy">    -10.08587074 </i>
   </energy>
  </scstep>
  <scstep>
   <time name="dav">   18.64   18.66</time>
   <time name="total">   20.40   20.42</time>
   <energy>
    <i name="e_fr_energy">    -10.08674159 </i>
    <i name="e_wo_entrp">    -10.08674159 </i>
    <i name="e_0_energy">    -10.08674159 </i>
   </energy>
  </scstep>
  <scstep>
   <time name="dav">   20.99   21.01</time>
   <time name="total">   22.75   22.78</time>
   <energy>
    <i name="e_fr_energy">    -10.08658614 </i>
    <i name="e_wo_entrp">    -10.08658614 </i>
    <i name="e_0_energy">    -10.08658614 </i>
   </energy>
  </scstep>
  <scstep>
   <time name="dav">   17.72   17.74</time>
   <time name="total">   19.49   19.51</time>
   <energy>
    <i name="e_fr_energy">    -10.08659168 </i>
    <i name="e_wo_entrp">    -10.08659168 </i>
    <i name="e_0_energy">    -10.08659168 </i>
   </energy>
  </scstep>
  <scstep>
   <time name="dav">   16.06   16.08</time>
   <time name="total">   17.80   17.83</time>
   <energy>
    <i name="e_fr_energy">    -10.08663125 </i>
    <i name="e_wo_entrp">    -10.08663125 </i>
    <i name="e_0_energy">    -10.08663125 </i>
   </energy>
  </scstep>
  <scstep>
   <time name="dav">   18.17   18.19</time>
   <time name="total">   19.92   19.94</time>
   <energy>
    <i name="e_fr_energy">    -10.08663368 </i>
    <i name="e_wo_entrp">    -10.08663368 </i>
    <i name="e_0_energy">    -10.08663368 </i>
   </energy>
  </scstep>
  <scstep>
   <time name="dav">   20.97   20.99</time>
   <time name="total">   22.72   22.74</time>
   <energy>
    <i name="e_fr_energy">    -10.08663219 </i>
    <i name="e_wo_entrp">    -10.08663219 </i>
    <i name="e_0_energy">    -10.08663219 </i>
   </energy>
  </scstep>
  <scstep>
   <time name="dav">   18.66   18.68</time>
   <time name="total">   20.41   20.43</time>
   <energy>
    <i name="e_fr_energy">    -10.08663060 </i>
    <i name="e_wo_entrp">    -10.08663060 </i>
    <i name="e_0_energy">    -10.08663060 </i>
   </energy>
  </scstep>
  <scstep>
   <time name="dav">   18.79   18.81</time>
   <time name="total">   20.54   20.57</time>
   <energy>
    <i name="e_fr_energy">    -10.08663022 </i>
    <i name="e_wo_entrp">    -10.08663022 </i>
    <i name="e_0_energy">    -10.08663022 </i>
   </energy>
  </scstep>
  <scstep>
   <time name="dav">   15.73   15.75</time>
   <time name="total">   17.49   17.51</time>
   <energy>
    <i name="e_fr_energy">    -10.08663039 </i>
    <i name="e_wo_entrp">    -10.08663039 </i>
    <i name="e_0_energy">    -10.08663039 </i>
   </energy>
  </scstep>
  <scstep>
   <time name="dav">   14.79   14.82</time>
   <time name="total">   16.54   16.57</time>
   <energy>
    <i name="e_fr_energy">    -10.08663062 </i>
    <i name="e_wo_entrp">    -10.08663062 </i>
    <i name="e_0_energy">    -10.08663062 </i>
   </energy>
  </scstep>
  <scstep>
   <time name="dav">   10.78   10.81</time>
   <time name="total">   12.53   12.57</time>
   <energy>
    <i name="e_fr_energy">    -10.08663051 </i>
    <i name="e_wo_entrp">    -10.08663051 </i>
    <i name="e_0_energy">    -10.08663051 </i>
   </energy>
  </scstep>
  <scstep>
   <time name="dav">   10.68   10.70</time>
   <time name="total">   10.74   10.76</time>
   <energy>
    <i name="alphaZ">     47.44117185 </i>
    <i name="ewald">  -2562.29768425 </i>
    <i name="hartreedc">  -1194.03963734 </i>
    <i name="XCdc">     55.96092648 </i>
    <i name="pawpsdc">   3786.06692991 </i>
    <i name="pawaedc">  -3714.60227323 </i>
    <i name="eentropy">     -0.00000000 </i>
    <i name="bandstr">   -214.00463671 </i>
    <i name="atom">   3785.38857276 </i>
    <i name="e_fr_energy">    -10.08663051 </i>
    <i name="e_wo_entrp">    -10.08663051 </i>
    <i name="e_0_energy">    -10.08663051 </i>
   </energy>
  </scstep>
  <structure>
   <crystal>
    <varray name="basis" >
     <v>       2.43012168       6.43263155       0.00000000 </v>
     <v>      -2.43012168       6.43263155       0.00000000 </v>
     <v>       0.00000000       0.00000000       4.83363599 </v>
    </varray>
    <i name="volume">    151.11954365 </i>
    <varray name="rec_basis" >
     <v>       0.20575101       0.07772869       0.00000000 </v>
     <v>      -0.20575101       0.07772869       0.00000000 </v>
     <v>       0.00000000       0.00000000       0.20688360 </v>
    </varray>
   </crystal>
   <varray name="positions" >
    <v>       0.60326686       0.60326678       0.75000006 </v>
    <v>       0.39673322       0.39673322       0.25000002 </v>
    <v>       0.85390383       0.85390375       0.75000006 </v>
    <v>       0.14609625       0.14609625       0.25000002 </v>
   </varray>
  </structure>
  <varray name="forces" >
   <v>      -0.00000008      -0.03702416      -0.00000003 </v>
   <v>       0.00000008       0.03702416       0.00000003 </v>
   <v>      -0.00000027       0.06133101      -0.00000020 </v>
   <v>       0.00000027      -0.06133101       0.00000020 </v>
  </varray>
  <varray name="stress" >
   <v>       4.13344138       0.00000092       0.00000063 </v>
   <v>       0.00000120       6.24158542      -0.00000080 </v>
   <v>       0.00000072      -0.00000083       4.82504965 </v>
  </varray>
  <energy>
   <i name="e_fr_energy">    -10.08663051 </i>
   <i name="e_wo_entrp">    -10.08663051 </i>
   <i name="e_0_energy">     -0.00000000 </i>
  </energy>
  <scstep>
   <time name="total">   20.74   20.74</time>
   <energy>
    <i name="e_fr_energy">     -3.09969290 </i>
    <i name="e_wo_entrp">     -3.09969290 </i>
    <i name="e_0_energy">     -3.09969290 </i>
   </energy>
  </scstep>
  <scstep>
   <time name="total">   21.86   21.86</time>
   <energy>
    <i name="e_fr_energy">     -3.32410836 </i>
    <i name="e_wo_entrp">     -3.32410836 </i>
    <i name="e_0_energy">     -3.32410836 </i>
   </energy>
  </scstep>
  <scstep>
   <time name="total">   22.52   22.52</time>
   <energy>
    <i name="e_fr_energy">     -3.32600729 </i>
    <i name="e_wo_entrp">     -3.32600729 </i>
    <i name="e_0_energy">     -3.32600729 </i>
   </energy>
  </scstep>
  <scstep>
   <time name="total">   21.46   21.46</time>
   <energy>
    <i name="e_fr_energy">     -3.32629294 </i>
    <i name="e_wo_entrp">     -3.32629294 </i>
    <i name="e_0_energy">     -3.32629294 </i>
   </energy>
  </scstep>
  <scstep>
   <time name="total">   22.78   22.78</time>
   <energy>
    <i name="e_fr_energy">     -3.32629984 </i>
    <i name="e_wo_entrp">     -3.32629984 </i>
    <i name="e_0_energy">     -3.32629984 </i>
   </energy>
  </scstep>
  <scstep>
   <time name="total">   23.43   23.43</time>
   <energy>
    <i name="e_fr_energy">     -3.32630043 </i>
    <i name="e_wo_entrp">     -3.32630043 </i>
    <i name="e_0_energy">     -3.32630043 </i>
   </energy>
  </scstep>
  <scstep>
   <time name="total">   21.93   21.93</time>
   <energy>
    <i name="e_fr_energy">     -3.32630048 </i>
    <i name="e_wo_entrp">     -3.32630048 </i>
    <i name="e_0_energy">     -3.32630048 </i>
   </energy>
  </scstep>
  <scstep>
   <time name="total">   17.56   17.56</time>
   <energy>
    <i name="e_fr_energy">     -3.32630046 </i>
    <i name="e_wo_entrp">     -3.32630046 </i>
    <i name="e_0_energy">     -3.32630046 </i>
   </energy>
  </scstep>
  <scstep>
   <time name="total">   15.75   15.75</time>
   <energy>
    <i name="e_fr_energy">     -3.32630046 </i>
    <i name="e_wo_entrp">     -3.32630046 </i>
    <i name="e_0_energy">     -3.32630046 </i>
   </energy>
  </scstep>
  <scstep>
   <time name="total">   14.49   14.49</time>
   <energy>
    <i name="e_fr_energy">     -3.32630046 </i>
    <i name="e_wo_entrp">     -3.32630046 </i>
    <i name="e_0_energy">     -3.32630046 </i>
   </energy>
  </scstep>
  <scstep>
   <time name="total">   14.56   14.56</time>
   <energy>
    <i name="e_fr_energy">     -3.32630046 </i>
    <i name="e_wo_entrp">     -3.32630046 </i>
    <i name="e_0_energy">     -3.32630046 </i>
   </energy>
  </scstep>
  <scstep>
   <time name="total">   20.22   20.22</time>
   <energy>
    <i name="e_fr_energy">     -3.29708703 </i>
    <i name="e_wo_entrp">     -3.29708703 </i>
    <i name="e_0_energy">     -3.29708703 </i>
   </energy>
  </scstep>
  <scstep>
   <time name="total">   20.89   20.89</time>
   <energy>
    <i name="e_fr_energy">     -3.55012840 </i>
    <i name="e_wo_entrp">     -3.55012840 </i>
    <i name="e_0_energy">     -3.55012840 </i>
   </energy>
  </scstep>
  <scstep>
   <time name="total">   22.19   22.19</time>
   <energy>
    <i name="e_fr_energy">     -3.55316214 </i>
    <i name="e_wo_entrp">     -3.55316214 </i>
    <i name="e_0_energy">     -3.55316214 </i>
   </energy>
  </scstep>
  <scstep>
   <time name="total">   22.98   22.98</time>
   <energy>
    <i name="e_fr_energy">     -3.55360519 </i>
    <i name="e_wo_entrp">     -3.55360519 </i>
    <i name="e_0_energy">     -3.55360519 </i>
   </energy>
  </scstep>
  <scstep>
   <time name="total">   22.96   22.96</time>
   <energy>
    <i name="e_fr_energy">     -3.55361871 </i>
    <i name="e_wo_entrp">     -3.55361871 </i>
    <i name="e_0_energy">     -3.55361871 </i>
   </energy>
  </scstep>
  <scstep>
   <time name="total">   23.73   23.73</time>
   <energy>
    <i name="e_fr_energy">     -3.55361902 </i>
    <i name="e_wo_entrp">     -3.55361902 </i>
    <i name="e_0_energy">     -3.55361902 </i>
   </energy>
  </scstep>
  <scstep>
   <time name="total">   21.99   21.99</time>
   <energy>
    <i name="e_fr_energy">     -3.55361912 </i>
    <i name="e_wo_entrp">     -3.55361912 </i>
    <i name="e_0_energy">     -3.55361912 </i>
   </energy>
  </scstep>
  <scstep>
   <time name="total">   16.87   16.87</time>
   <energy>
    <i name="e_fr_energy">     -3.55361908 </i>
    <i name="e_wo_entrp">     -3.55361908 </i>
    <i name="e_0_energy">     -3.55361908 </i>
   </energy>
  </scstep>
  <scstep>
   <time name="total">   16.01   16.01</time>
   <energy>
    <i name="e_fr_energy">     -3.55361908 </i>
    <i name="e_wo_entrp">     -3.55361908 </i>
    <i name="e_0_energy">     -3.55361908 </i>
   </energy>
  </scstep>
  <scstep>
   <time name="total">   15.90   15.90</time>
   <energy>
    <i name="e_fr_energy">     -3.55361908 </i>
    <i name="e_wo_entrp">     -3.55361908 </i>
    <i name="e_0_energy">     -3.55361908 </i>
   </energy>
  </scstep>
  <scstep>
   <time name="total">   14.92   14.92</time>
   <energy>
    <i name="e_fr_energy">     -3.55361908 </i>
    <i name="e_wo_entrp">     -3.55361908 </i>
    <i name="e_0_energy">     -3.55361908 </i>
   </energy>
  </scstep>
  <scstep>
   <time name="total">   20.82   20.82</time>
   <energy>
    <i name="e_fr_energy">     -3.51786249 </i>
    <i name="e_wo_entrp">     -3.51786249 </i>
    <i name="e_0_energy">     -3.51786249 </i>
   </energy>
  </scstep>
  <scstep>
   <time name="total">   21.35   21.35</time>
   <energy>
    <i name="e_fr_energy">     -3.80724078 </i>
    <i name="e_wo_entrp">     -3.80724078 </i>
    <i name="e_0_energy">     -3.80724078 </i>
   </energy>
  </scstep>
  <scstep>
   <time name="total">   22.75   22.75</time>
   <energy>
    <i name="e_fr_energy">     -3.81043556 </i>
    <i name="e_wo_entrp">     -3.81043556 </i>
    <i name="e_0_energy">     -3.81043556 </i>
   </energy>
  </scstep>
  <scstep>
   <time name="total">   23.23   23.23</time>
   <energy>
    <i name="e_fr_energy">     -3.81109627 </i>
    <i name="e_wo_entrp">     -3.81109627 </i>
    <i name="e_0_energy">     -3.81109627 </i>
   </energy>
  </scstep>
  <scstep>
   <time name="total">   23.09   23.09</time>
   <energy>
    <i name="e_fr_energy">     -3.81110969 </i>
    <i name="e_wo_entrp">     -3.81110969 </i>
    <i name="e_0_energy">     -3.81110969 </i>
   </energy>
  </scstep>
  <scstep>
   <time name="total">   23.42   23.42</time>
   <energy>
    <i name="e_fr_energy">     -3.81111006 </i>
    <i name="e_wo_entrp">     -3.81111006 </i>
    <i name="e_0_energy">     -3.81111006 </i>
   </energy>
  </scstep>
  <scstep>
   <time name="total">   22.39   22.39</time>
   <energy>
    <i name="e_fr_energy">     -3.81111016 </i>
    <i name="e_wo_entrp">     -3.81111016 </i>
    <i name="e_0_energy">     -3.81111016 </i>
   </energy>
  </scstep>
  <scstep>
   <time name="total">   17.28   17.28</time>
   <energy>
    <i name="e_fr_energy">     -3.81111014 </i>
    <i name="e_wo_entrp">     -3.81111014 </i>
    <i name="e_0_energy">     -3.81111014 </i>
   </energy>
  </scstep>
  <scstep>
   <time name="total">   15.89   15.89</time>
   <energy>
    <i name="e_fr_energy">     -3.81111014 </i>
    <i name="e_wo_entrp">     -3.81111014 </i>
    <i name="e_0_energy">     -3.81111014 </i>
   </energy>
  </scstep>
  <scstep>
   <time name="total">   14.86   14.86</time>
   <energy>
    <i name="e_fr_energy">     -3.81111014 </i>
    <i name="e_wo_entrp">     -3.81111014 </i>
    <i name="e_0_energy">     -3.81111014 </i>
   </energy>
  </scstep>
  <scstep>
   <time name="total">   15.07   15.07</time>
   <energy>
    <i name="e_fr_energy">     -3.81111014 </i>
    <i name="e_wo_entrp">     -3.81111014 </i>
    <i name="e_0_energy">     -3.81111014 </i>
   </energy>
  </scstep>
  <scstep>
   <time name="total">   14.85   14.85</time>
   <energy>
    <i name="e_fr_energy">     -3.81111014 </i>
    <i name="e_wo_entrp">     -3.81111014 </i>
    <i name="e_0_energy">     -3.81111014 </i>
   </energy>
  </scstep>
  <scstep>
   <time name="total">   14.89   14.89</time>
   <energy>
    <i name="e_fr_energy">     -3.81111014 </i>
    <i name="e_wo_entrp">     -3.81111014 </i>
    <i name="e_0_energy">     -3.81111014 </i>
   </energy>
  </scstep>
  <scstep>
   <time name="total">   14.94   14.94</time>
   <energy>
    <i name="e_fr_energy">     -3.81111014 </i>
    <i name="e_wo_entrp">     -3.81111014 </i>
    <i name="e_0_energy">     -3.81111014 </i>
   </energy>
  </scstep>
  <scstep>
   <time name="total">   14.75   14.75</time>
   <energy>
    <i name="e_fr_energy">     -3.81111014 </i>
    <i name="e_wo_entrp">     -3.81111014 </i>
    <i name="e_0_energy">     -3.81111014 </i>
   </energy>
  </scstep>
  <scstep>
   <time name="total">   14.90   14.90</time>
   <energy>
    <i name="e_fr_energy">     -3.81111014 </i>
    <i name="e_wo_entrp">     -3.81111014 </i>
    <i name="e_0_energy">     -3.81111014 </i>
   </energy>
  </scstep>
  <scstep>
   <time name="total">   14.65   14.65</time>
   <energy>
    <i name="e_fr_energy">     -3.81111014 </i>
    <i name="e_wo_entrp">     -3.81111014 </i>
    <i name="e_0_energy">     -3.81111014 </i>
   </energy>
  </scstep>
  <scstep>
   <time name="total">   13.94   13.94</time>
   <energy>
    <i name="e_fr_energy">     -3.81111014 </i>
    <i name="e_wo_entrp">     -3.81111014 </i>
    <i name="e_0_energy">     -3.81111014 </i>
   </energy>
  </scstep>
  <scstep>
   <time name="total">   13.30   13.30</time>
   <energy>
    <i name="e_fr_energy">     -3.81111014 </i>
    <i name="e_wo_entrp">     -3.81111014 </i>
    <i name="e_0_energy">     -3.81111014 </i>
   </energy>
  </scstep>
  <scstep>
   <time name="total">   12.24   12.24</time>
   <energy>
    <i name="e_fr_energy">     -3.81111014 </i>
    <i name="e_wo_entrp">     -3.81111014 </i>
    <i name="e_0_energy">     -3.81111014 </i>
   </energy>
  </scstep>
  <varray name="epsilon_rpa" >
   <v>       8.96593631      -0.00000042      -0.00000419 </v>
   <v>       0.00000216       9.51032255       0.00000137 </v>
   <v>       0.00000091       0.00000179      10.12698154 </v>
  </varray>
  <kpoints>
   <generation param="Gamma">
    <v type="int" name="divisions">       8        8       12 </v>
    <v name="usershift">      0.00000000       0.00000000       0.00000000 </v>
    <v name="genvec1">      0.12500000      -0.00000000       0.00000000 </v>
    <v name="genvec2">     -0.00000000       0.12500000       0.00000000 </v>
    <v name="genvec3">      0.00000000       0.00000000       0.08333333 </v>
    <v name="shift">      0.00000000       0.00000000       0.00000000 </v>
   </generation>
   <varray name="kpointlist" >
    <v>       0.00000000       0.00000000       0.00000000 </v>
    <v>       0.12500000       0.00000000       0.00000000 </v>
    <v>       0.25000000       0.00000000       0.00000000 </v>
    <v>       0.37500000       0.00000000       0.00000000 </v>
    <v>       0.50000000       0.00000000       0.00000000 </v>
    <v>       0.00000000       0.12500000       0.00000000 </v>
    <v>       0.12500000       0.12500000       0.00000000 </v>
    <v>       0.25000000       0.12500000       0.00000000 </v>
    <v>       0.37500000       0.12500000       0.00000000 </v>
    <v>       0.50000000       0.12500000       0.00000000 </v>
    <v>      -0.37500000       0.12500000       0.00000000 </v>
    <v>      -0.25000000       0.12500000       0.00000000 </v>
    <v>      -0.12500000       0.12500000       0.00000000 </v>
    <v>       0.00000000       0.25000000       0.00000000 </v>
    <v>       0.12500000       0.25000000       0.00000000 </v>
    <v>       0.25000000       0.25000000       0.00000000 </v>
    <v>       0.37500000       0.25000000       0.00000000 </v>
    <v>       0.50000000       0.25000000       0.00000000 </v>
    <v>      -0.37500000       0.25000000       0.00000000 </v>
    <v>      -0.25000000       0.25000000       0.00000000 </v>
    <v>      -0.12500000       0.25000000       0.00000000 </v>
    <v>       0.00000000       0.37500000       0.00000000 </v>
    <v>       0.12500000       0.37500000       0.00000000 </v>
    <v>       0.25000000       0.37500000       0.00000000 </v>
    <v>       0.37500000       0.37500000       0.00000000 </v>
    <v>       0.50000000       0.37500000       0.00000000 </v>
    <v>      -0.37500000       0.37500000       0.00000000 </v>
    <v>      -0.25000000       0.37500000       0.00000000 </v>
    <v>      -0.12500000       0.37500000       0.00000000 </v>
    <v>       0.00000000       0.50000000       0.00000000 </v>
    <v>       0.12500000       0.50000000       0.00000000 </v>
    <v>       0.25000000       0.50000000       0.00000000 </v>
    <v>       0.37500000       0.50000000       0.00000000 </v>
    <v>       0.50000000       0.50000000       0.00000000 </v>
    <v>       0.00000000       0.00000000       0.08333333 </v>
    <v>       0.12500000       0.00000000       0.08333333 </v>
    <v>       0.25000000       0.00000000       0.08333333 </v>
    <v>       0.37500000       0.00000000       0.08333333 </v>
    <v>       0.50000000       0.00000000       0.08333333 </v>
    <v>      -0.37500000      -0.00000000       0.08333333 </v>
    <v>      -0.25000000      -0.00000000       0.08333333 </v>
    <v>      -0.12500000      -0.00000000       0.08333333 </v>
    <v>       0.00000000       0.12500000       0.08333333 </v>
    <v>       0.12500000       0.12500000       0.08333333 </v>
    <v>       0.25000000       0.12500000       0.08333333 </v>
    <v>       0.37500000       0.12500000       0.08333333 </v>
    <v>       0.50000000       0.12500000       0.08333333 </v>
    <v>      -0.37500000       0.12500000       0.08333333 </v>
    <v>      -0.25000000       0.12500000       0.08333333 </v>
    <v>      -0.12500000       0.12500000       0.08333333 </v>
    <v>       0.00000000       0.25000000       0.08333333 </v>
    <v>       0.12500000       0.25000000       0.08333333 </v>
    <v>       0.25000000       0.25000000       0.08333333 </v>
    <v>       0.37500000       0.25000000       0.08333333 </v>
    <v>       0.50000000       0.25000000       0.08333333 </v>
    <v>      -0.37500000       0.25000000       0.08333333 </v>
    <v>      -0.25000000       0.25000000       0.08333333 </v>
    <v>      -0.12500000       0.25000000       0.08333333 </v>
    <v>       0.00000000       0.37500000       0.08333333 </v>
    <v>       0.12500000       0.37500000       0.08333333 </v>
    <v>       0.25000000       0.37500000       0.08333333 </v>
    <v>       0.37500000       0.37500000       0.08333333 </v>
    <v>       0.50000000       0.37500000       0.08333333 </v>
    <v>      -0.37500000       0.37500000       0.08333333 </v>
    <v>      -0.25000000       0.37500000       0.08333333 </v>
    <v>      -0.12500000       0.37500000       0.08333333 </v>
    <v>       0.00000000       0.50000000       0.08333333 </v>
    <v>       0.12500000       0.50000000       0.08333333 </v>
    <v>       0.25000000       0.50000000       0.08333333 </v>
    <v>       0.37500000       0.50000000       0.08333333 </v>
    <v>       0.50000000       0.50000000       0.08333333 </v>
    <v>      -0.37500000       0.50000000       0.08333333 </v>
    <v>      -0.25000000       0.50000000       0.08333333 </v>
    <v>      -0.12500000       0.50000000       0.08333333 </v>
    <v>      -0.00000000      -0.37500000       0.08333333 </v>
    <v>       0.12500000      -0.37500000       0.08333333 </v>
    <v>       0.25000000      -0.37500000       0.08333333 </v>
    <v>       0.37500000      -0.37500000       0.08333333 </v>
    <v>       0.50000000      -0.37500000       0.08333333 </v>
    <v>      -0.37500000      -0.37500000       0.08333333 </v>
    <v>      -0.25000000      -0.37500000       0.08333333 </v>
    <v>      -0.12500000      -0.37500000       0.08333333 </v>
    <v>      -0.00000000      -0.25000000       0.08333333 </v>
    <v>       0.12500000      -0.25000000       0.08333333 </v>
    <v>       0.25000000      -0.25000000       0.08333333 </v>
    <v>       0.37500000      -0.25000000       0.08333333 </v>
    <v>       0.50000000      -0.25000000       0.08333333 </v>
    <v>      -0.37500000      -0.25000000       0.08333333 </v>
    <v>      -0.25000000      -0.25000000       0.08333333 </v>
    <v>      -0.12500000      -0.25000000       0.08333333 </v>
    <v>      -0.00000000      -0.12500000       0.08333333 </v>
    <v>       0.12500000      -0.12500000       0.08333333 </v>
    <v>       0.25000000      -0.12500000       0.08333333 </v>
    <v>       0.37500000      -0.12500000       0.08333333 </v>
    <v>       0.50000000      -0.12500000       0.08333333 </v>
    <v>      -0.37500000      -0.12500000       0.08333333 </v>
    <v>      -0.25000000      -0.12500000       0.08333333 </v>
    <v>      -0.12500000      -0.12500000       0.08333333 </v>
    <v>       0.00000000       0.00000000       0.16666667 </v>
    <v>       0.12500000       0.00000000       0.16666667 </v>
    <v>       0.25000000       0.00000000       0.16666667 </v>
    <v>       0.37500000       0.00000000       0.16666667 </v>
    <v>       0.50000000       0.00000000       0.16666667 </v>
    <v>      -0.37500000      -0.00000000       0.16666667 </v>
    <v>      -0.25000000      -0.00000000       0.16666667 </v>
    <v>      -0.12500000      -0.00000000       0.16666667 </v>
    <v>       0.00000000       0.12500000       0.16666667 </v>
    <v>       0.12500000       0.12500000       0.16666667 </v>
    <v>       0.25000000       0.12500000       0.16666667 </v>
    <v>       0.37500000       0.12500000       0.16666667 </v>
    <v>       0.50000000       0.12500000       0.16666667 </v>
    <v>      -0.37500000       0.12500000       0.16666667 </v>
    <v>      -0.25000000       0.12500000       0.16666667 </v>
    <v>      -0.12500000       0.12500000       0.16666667 </v>
    <v>       0.00000000       0.25000000       0.16666667 </v>
    <v>       0.12500000       0.25000000       0.16666667 </v>
    <v>       0.25000000       0.25000000       0.16666667 </v>
    <v>       0.37500000       0.25000000       0.16666667 </v>
    <v>       0.50000000       0.25000000       0.16666667 </v>
    <v>      -0.37500000       0.25000000       0.16666667 </v>
    <v>      -0.25000000       0.25000000       0.16666667 </v>
    <v>      -0.12500000       0.25000000       0.16666667 </v>
    <v>       0.00000000       0.37500000       0.16666667 </v>
    <v>       0.12500000       0.37500000       0.16666667 </v>
    <v>       0.25000000       0.37500000       0.16666667 </v>
    <v>       0.37500000       0.37500000       0.16666667 </v>
    <v>       0.50000000       0.37500000       0.16666667 </v>
    <v>      -0.37500000       0.37500000       0.16666667 </v>
    <v>      -0.25000000       0.37500000       0.16666667 </v>
    <v>      -0.12500000       0.37500000       0.16666667 </v>
    <v>       0.00000000       0.50000000       0.16666667 </v>
    <v>       0.12500000       0.50000000       0.16666667 </v>
[...]
       <r>    6.4885    0.0000 </r>
       <r>    6.4885    0.0000 </r>
       <r>    8.1390    0.0000 </r>
       <r>    8.1390    0.0000 </r>
      </set>
      <set comment="kpoint 385">
       <r>  -10.1167    1.0000 </r>
       <r>  -10.1167    1.0000 </r>
       <r>  -10.0823    1.0000 </r>
       <r>  -10.0823    1.0000 </r>
       <r>  -10.0474    1.0000 </r>
       <r>  -10.0474    1.0000 </r>
       <r>  -10.0340    1.0000 </r>
       <r>  -10.0340    1.0000 </r>
       <r>  -10.0153    1.0000 </r>
       <r>  -10.0153    1.0000 </r>
       <r>   -8.1922    1.0000 </r>
       <r>   -8.1922    1.0000 </r>
       <r>   -0.5971    1.0000 </r>
       <r>   -0.5971    1.0000 </r>
       <r>    0.5032    1.0000 </r>
       <r>    0.5032    1.0000 </r>
       <r>    1.4547    1.0000 </r>
       <r>    1.4547    1.0000 </r>
       <r>    2.5396    1.0000 </r>
       <r>    2.5396    1.0000 </r>
       <r>    6.3357    0.0000 </r>
       <r>    6.3357    0.0000 </r>
       <r>    7.9802    0.0000 </r>
       <r>    7.9802    0.0000 </r>
      </set>
      <set comment="kpoint 386">
       <r>  -10.1044    1.0000 </r>
       <r>  -10.1044    1.0000 </r>
       <r>  -10.0803    1.0000 </r>
       <r>  -10.0803    1.0000 </r>
       <r>  -10.0478    1.0000 </r>
       <r>  -10.0478    1.0000 </r>
       <r>  -10.0334    1.0000 </r>
       <r>  -10.0334    1.0000 </r>
       <r>  -10.0168    1.0000 </r>
       <r>  -10.0168    1.0000 </r>
       <r>   -8.2429    1.0000 </r>
       <r>   -8.2429    1.0000 </r>
       <r>   -0.9993    1.0000 </r>
       <r>   -0.9993    1.0000 </r>
       <r>    0.8748    1.0000 </r>
       <r>    0.8748    1.0000 </r>
       <r>    2.0633    1.0000 </r>
       <r>    2.0633    1.0000 </r>
       <r>    2.8509    1.0000 </r>
       <r>    2.8509    1.0000 </r>
       <r>    5.8299    0.0000 </r>
       <r>    5.8299    0.0000 </r>
       <r>    7.7799    0.0000 </r>
       <r>    7.7799    0.0000 </r>
      </set>
      <set comment="kpoint 387">
       <r>  -10.0973    1.0000 </r>
       <r>  -10.0973    1.0000 </r>
       <r>  -10.0727    1.0000 </r>
       <r>  -10.0727    1.0000 </r>
       <r>  -10.0485    1.0000 </r>
       <r>  -10.0485    1.0000 </r>
       <r>  -10.0324    1.0000 </r>
       <r>  -10.0324    1.0000 </r>
       <r>  -10.0182    1.0000 </r>
       <r>  -10.0182    1.0000 </r>
       <r>   -8.2933    1.0000 </r>
       <r>   -8.2933    1.0000 </r>
       <r>   -1.2906    1.0000 </r>
       <r>   -1.2906    1.0000 </r>
       <r>    1.4865    1.0000 </r>
       <r>    1.4865    1.0000 </r>
       <r>    2.3025    1.0000 </r>
       <r>    2.3025    1.0000 </r>
       <r>    3.2415    1.0000 </r>
       <r>    3.2415    1.0000 </r>
       <r>    5.4330    0.0000 </r>
       <r>    5.4330    0.0000 </r>
       <r>    7.3771    0.0000 </r>
       <r>    7.3771    0.0000 </r>
      </set>
      <set comment="kpoint 388">
       <r>  -10.0962    1.0000 </r>
       <r>  -10.0962    1.0000 </r>
       <r>  -10.0675    1.0000 </r>
       <r>  -10.0675    1.0000 </r>
       <r>  -10.0489    1.0000 </r>
       <r>  -10.0489    1.0000 </r>
       <r>  -10.0318    1.0000 </r>
       <r>  -10.0318    1.0000 </r>
       <r>  -10.0187    1.0000 </r>
       <r>  -10.0187    1.0000 </r>
       <r>   -8.3141    1.0000 </r>
       <r>   -8.3141    1.0000 </r>
       <r>   -1.3925    1.0000 </r>
       <r>   -1.3925    1.0000 </r>
       <r>    1.9352    1.0000 </r>
       <r>    1.9352    1.0000 </r>
       <r>    2.2910    1.0000 </r>
       <r>    2.2910    1.0000 </r>
       <r>    3.2074    1.0000 </r>
       <r>    3.2074    1.0000 </r>
       <r>    5.5758    0.0000 </r>
       <r>    5.5758    0.0000 </r>
       <r>    6.8837    0.0000 </r>
       <r>    6.8837    0.0000 </r>
      </set>
     </set>
    </set>
   </array>
  </eigenvalues>
  <separator name="orbital magnetization" >
   <v name="MAGDIPOLOUT">      0.00000000      0.00000000      0.00000000</v>
  </separator>
  <dos>
   <i name="efermi">      3.77332824 </i>
   <total>
    <array>
     <dimension dim="1">gridpoints</dimension>
     <dimension dim="2">spin</dimension>
     <field>energy</field>
     <field>total</field>
     <field>integrated</field>
     <set>
      <set comment="spin 1">
       <r>   -11.0506     0.0000     0.0000 </r>
       <r>   -10.9829     0.0000     0.0000 </r>
       <r>   -10.9153     0.0000     0.0000 </r>
       <r>   -10.8476     0.0000     0.0000 </r>
       <r>   -10.7800     0.0000     0.0000 </r>
       <r>   -10.7123     0.0000     0.0000 </r>
       <r>   -10.6447     0.0000     0.0000 </r>
       <r>   -10.5770     0.0000     0.0000 </r>
       <r>   -10.5094     0.0000     0.0000 </r>
       <r>   -10.4417     0.0000     0.0000 </r>
       <r>   -10.3741     0.0000     0.0000 </r>
       <r>   -10.3064     0.0000     0.0000 </r>
       <r>   -10.2388     0.0000     0.0000 </r>
       <r>   -10.1711     0.0000     0.0000 </r>
       <r>   -10.1035    29.3239     1.9838 </r>
       <r>   -10.0358   169.9013    13.4877 </r>
       <r>    -9.9682    95.9731    19.9963 </r>
       <r>    -9.9005     0.0000    20.0000 </r>
       <r>    -9.8329     0.0000    20.0000 </r>
       <r>    -9.7652     0.0000    20.0000 </r>
       <r>    -9.6976     0.0000    20.0000 </r>
       <r>    -9.6299     0.0000    20.0000 </r>
       <r>    -9.5623     0.0000    20.0000 </r>
       <r>    -9.4946     0.0000    20.0000 </r>
       <r>    -9.4269     0.0000    20.0000 </r>
       <r>    -9.3593     0.0000    20.0000 </r>
       <r>    -9.2916     0.0000    20.0000 </r>
       <r>    -9.2240     0.0000    20.0000 </r>
       <r>    -9.1563     0.0000    20.0000 </r>
       <r>    -9.0887     0.0000    20.0000 </r>
       <r>    -9.0210     0.0000    20.0000 </r>
       <r>    -8.9534     0.0000    20.0000 </r>
       <r>    -8.8857     0.0000    20.0000 </r>
       <r>    -8.8181     0.0000    20.0000 </r>
       <r>    -8.7504     0.0000    20.0000 </r>
       <r>    -8.6828     0.1145    20.0077 </r>
       <r>    -8.6151     1.5876    20.1152 </r>
       <r>    -8.5475     2.5730    20.2893 </r>
       <r>    -8.4798     3.9408    20.5567 </r>
       <r>    -8.4122     4.9118    20.8891 </r>
       <r>    -8.3445     6.1528    21.3060 </r>
       <r>    -8.2769     6.8035    21.7665 </r>
       <r>    -8.2092    13.0102    22.6478 </r>
       <r>    -8.1416    15.2129    23.6792 </r>
       <r>    -8.0739     4.5532    23.9882 </r>
       <r>    -8.0063     0.1703    24.0000 </r>
       <r>    -7.9386     0.0000    24.0000 </r>
       <r>    -7.8710     0.0000    24.0000 </r>
       <r>    -7.8033     0.0000    24.0000 </r>
       <r>    -7.7357     0.0000    24.0000 </r>
       <r>    -7.6680     0.0000    24.0000 </r>
       <r>    -7.6004     0.0000    24.0000 </r>
       <r>    -7.5327     0.0000    24.0000 </r>
       <r>    -7.4651     0.0000    24.0000 </r>
       <r>    -7.3974     0.0000    24.0000 </r>
       <r>    -7.3298     0.0000    24.0000 </r>
       <r>    -7.2621     0.0000    24.0000 </r>
       <r>    -7.1945     0.0000    24.0000 </r>
       <r>    -7.1268     0.0000    24.0000 </r>
       <r>    -7.0592     0.0000    24.0000 </r>
       <r>    -6.9915     0.0000    24.0000 </r>
       <r>    -6.9239     0.0000    24.0000 </r>
       <r>    -6.8562     0.0000    24.0000 </r>
       <r>    -6.7886     0.0000    24.0000 </r>
       <r>    -6.7209     0.0000    24.0000 </r>
       <r>    -6.6533     0.0000    24.0000 </r>
       <r>    -6.5856     0.0000    24.0000 </r>
       <r>    -6.5180     0.0000    24.0000 </r>
       <r>    -6.4503     0.0000    24.0000 </r>
       <r>    -6.3827     0.0000    24.0000 </r>
       <r>    -6.3150     0.0000    24.0000 </r>
       <r>    -6.2474     0.0000    24.0000 </r>
       <r>    -6.1797     0.0000    24.0000 </r>
       <r>    -6.1121     0.0000    24.0000 </r>
       <r>    -6.0444     0.0000    24.0000 </r>
       <r>    -5.9768     0.0000    24.0000 </r>
       <r>    -5.9091     0.0000    24.0000 </r>
       <r>    -5.8415     0.0000    24.0000 </r>
       <r>    -5.7738     0.0000    24.0000 </r>
       <r>    -5.7062     0.0000    24.0000 </r>
       <r>    -5.6385     0.0000    24.0000 </r>
       <r>    -5.5709     0.0000    24.0000 </r>
       <r>    -5.5032     0.0000    24.0000 </r>
       <r>    -5.4356     0.0000    24.0000 </r>
       <r>    -5.3679     0.0000    24.0000 </r>
       <r>    -5.3003     0.0000    24.0000 </r>
       <r>    -5.2326     0.0000    24.0000 </r>
       <r>    -5.1650     0.0000    24.0000 </r>
       <r>    -5.0973     0.0000    24.0000 </r>
       <r>    -5.0297     0.0000    24.0000 </r>
       <r>    -4.9620     0.0000    24.0000 </r>
       <r>    -4.8944     0.0000    24.0000 </r>
       <r>    -4.8267     0.0000    24.0000 </r>
       <r>    -4.7591     0.0000    24.0000 </r>
       <r>    -4.6914     0.0000    24.0000 </r>
       <r>    -4.6238     0.0000    24.0000 </r>
       <r>    -4.5561     0.0000    24.0000 </r>
       <r>    -4.4885     0.0000    24.0000 </r>
       <r>    -4.4208     0.0000    24.0000 </r>
       <r>    -4.3532     0.0000    24.0000 </r>
       <r>    -4.2855     0.0000    24.0000 </r>
       <r>    -4.2179     0.0000    24.0000 </r>
       <r>    -4.1502     0.0000    24.0000 </r>
       <r>    -4.0826     0.0000    24.0000 </r>
       <r>    -4.0149     0.0000    24.0000 </r>
       <r>    -3.9473     0.0000    24.0000 </r>
       <r>    -3.8796     0.0000    24.0000 </r>
       <r>    -3.8120     0.0000    24.0000 </r>
       <r>    -3.7443     0.0000    24.0000 </r>
       <r>    -3.6767     0.0000    24.0000 </r>
       <r>    -3.6090     0.0000    24.0000 </r>
       <r>    -3.5414     0.0000    24.0000 </r>
       <r>    -3.4737     0.0000    24.0000 </r>
       <r>    -3.4061     0.0000    24.0000 </r>
       <r>    -3.3384     0.0000    24.0000 </r>
       <r>    -3.2708     0.0000    24.0000 </r>
       <r>    -3.2031     0.0000    24.0000 </r>
       <r>    -3.1355     0.0000    24.0000 </r>
       <r>    -3.0678     0.0000    24.0000 </r>
       <r>    -3.0002     0.0000    24.0000 </r>
       <r>    -2.9325     0.0000    24.0000 </r>
       <r>    -2.8649     0.0000    24.0000 </r>
       <r>    -2.7972     0.0000    24.0000 </r>
       <r>    -2.7296     0.0000    24.0000 </r>
       <r>    -2.6619     0.0000    24.0000 </r>
       <r>    -2.5943     0.0000    24.0000 </r>
       <r>    -2.5266     0.0000    24.0000 </r>
       <r>    -2.4590     0.0000    24.0000 </r>
       <r>    -2.3913     0.0000    24.0000 </r>
       <r>    -2.3237     0.0000    24.0000 </r>
       <r>    -2.2560     0.0000    24.0000 </r>
       <r>    -2.1884     0.0000    24.0000 </r>
       <r>    -2.1207     0.0000    24.0000 </r>
       <r>    -2.0531     0.0000    24.0000 </r>
       <r>    -1.9854     0.0000    24.0000 </r>
       <r>    -1.9178     0.0000    24.0000 </r>
       <r>    -1.8501     0.0000    24.0000 </r>
       <r>    -1.7825     0.1692    24.0114 </r>
       <r>    -1.7148     1.1280    24.0878 </r>
       <r>    -1.6472     0.7440    24.1381 </r>
       <r>    -1.5795     1.2041    24.2196 </r>
       <r>    -1.5119     1.1814    24.2998 </r>
       <r>    -1.4442     1.4918    24.4007 </r>
       <r>    -1.3766     3.7415    24.6538 </r>
       <r>    -1.3089     1.3915    24.7483 </r>
       <r>    -1.2413     3.1169    24.9592 </r>
       <r>    -1.1736     1.9968    25.0946 </r>
       <r>    -1.1060     1.7481    25.2136 </r>
       <r>    -1.0383     2.1799    25.3610 </r>
       <r>    -0.9707     3.6284    25.6065 </r>
       <r>    -0.9030     1.2202    25.6892 </r>
       <r>    -0.8354     3.0144    25.8932 </r>
       <r>    -0.7677     2.0629    26.0330 </r>
       <r>    -0.7001     2.4590    26.1993 </r>
       <r>    -0.6324     2.2426    26.3514 </r>
       <r>    -0.5648     2.7587    26.5383 </r>
       <r>    -0.4971     2.4553    26.7044 </r>
       <r>    -0.4295     2.9725    26.9061 </r>
       <r>    -0.3618     3.7769    27.1616 </r>
       <r>    -0.2942     3.1407    27.3744 </r>
       <r>    -0.2265     2.0738    27.5156 </r>
       <r>    -0.1588     1.5309    27.6192 </r>
       <r>    -0.0912     1.9375    27.7503 </r>
       <r>    -0.0235     0.7934    27.8043 </r>
       <r>     0.0441     0.4266    27.8334 </r>
       <r>     0.1118     0.7904    27.8870 </r>
       <r>     0.1794     0.5236    27.9226 </r>
       <r>     0.2471     0.7173    27.9711 </r>
       <r>     0.3147     1.0372    28.0416 </r>
       <r>     0.3824     1.1616    28.1203 </r>
       <r>     0.4500     2.3305    28.2780 </r>
       <r>     0.5177     1.7047    28.3938 </r>
       <r>     0.5853     1.2948    28.4818 </r>
       <r>     0.6530     1.3573    28.5742 </r>
       <r>     0.7206     4.8926    28.9052 </r>
       <r>     0.7883     1.6190    29.0158 </r>
       <r>     0.8559     2.7047    29.1989 </r>
       <r>     0.9236     2.0861    29.3402 </r>
       <r>     0.9912     3.9389    29.6067 </r>
       <r>     1.0589     2.7229    29.7916 </r>
       <r>     1.1265     5.6412    30.1736 </r>
       <r>     1.1942     5.4309    30.5416 </r>
       <r>     1.2618     3.5994    30.7859 </r>
       <r>     1.3295     3.1542    30.9998 </r>
       <r>     1.3971     4.7420    31.3212 </r>
       <r>     1.4648     4.4116    31.6199 </r>
       <r>     1.5324     4.8390    31.9475 </r>
       <r>     1.6001     3.9001    32.2114 </r>
       <r>     1.6677     2.5264    32.3827 </r>
       <r>     1.7354     6.9267    32.8514 </r>
       <r>     1.8030     4.7715    33.1753 </r>
       <r>     1.8707     5.4473    33.5441 </r>
       <r>     1.9383     5.6622    33.9276 </r>
       <r>     2.0060     4.4134    34.2273 </r>
       <r>     2.0736     6.9178    34.6957 </r>
       <r>     2.1413     5.5832    35.0759 </r>
       <r>     2.2089     7.1897    35.5625 </r>
       <r>     2.2766     6.6758    36.0153 </r>
       <r>     2.3442     4.6420    36.3295 </r>
       <r>     2.4119     2.2797    36.4838 </r>
       <r>     2.4795     2.7238    36.6680 </r>
       <r>     2.5472     2.2659    36.8221 </r>
       <r>     2.6148     1.4063    36.9180 </r>
       <r>     2.6825     3.2950    37.1410 </r>
       <r>     2.7501     2.0425    37.2804 </r>
       <r>     2.8178     3.2651    37.5020 </r>
       <r>     2.8854     4.0810    37.7785 </r>
       <r>     2.9531     4.3059    38.0712 </r>
       <r>     3.0207     3.8597    38.3328 </r>
       <r>     3.0884     4.1345    38.6126 </r>
       <r>     3.1560     6.1281    39.0274 </r>
       <r>     3.2237     6.3862    39.4604 </r>
       <r>     3.2913     2.5004    39.6296 </r>
       <r>     3.3590     2.5377    39.8014 </r>
       <r>     3.4266     1.4858    39.9021 </r>
       <r>     3.4943     0.6588    39.9470 </r>
       <r>     3.5619     0.0922    39.9532 </r>
       <r>     3.6296     0.4698    39.9850 </r>
       <r>     3.6972     0.2050    39.9989 </r>
       <r>     3.7649     0.0157    40.0000 </r>
       <r>     3.8325     0.0000    40.0000 </r>
       <r>     3.9002     0.0000    40.0000 </r>
       <r>     3.9678     0.0000    40.0000 </r>
       <r>     4.0355     0.0000    40.0000 </r>
       <r>     4.1031     0.0000    40.0000 </r>
       <r>     4.1708     0.0000    40.0000 </r>
       <r>     4.2384     0.0000    40.0000 </r>
       <r>     4.3061     0.0000    40.0000 </r>
       <r>     4.3737     0.0000    40.0000 </r>
       <r>     4.4414     0.0000    40.0000 </r>
       <r>     4.5090     0.0000    40.0000 </r>
       <r>     4.5767     0.0000    40.0000 </r>
       <r>     4.6443     0.0000    40.0000 </r>
       <r>     4.7120     0.0000    40.0000 </r>
       <r>     4.7796     0.0000    40.0000 </r>
       <r>     4.8473     0.0000    40.0000 </r>
       <r>     4.9149     0.0000    40.0000 </r>
       <r>     4.9826     0.0044    40.0003 </r>
       <r>     5.0502     0.0726    40.0052 </r>
       <r>     5.1179     0.0107    40.0059 </r>
       <r>     5.1855     0.1583    40.0166 </r>
       <r>     5.2532     0.0620    40.0208 </r>
       <r>     5.3208     0.2310    40.0365 </r>
       <r>     5.3885     0.3629    40.0610 </r>
       <r>     5.4561     1.3427    40.1519 </r>
       <r>     5.5238     0.6965    40.1991 </r>
       <r>     5.5914     1.5668    40.3055 </r>
       <r>     5.6591     1.6078    40.4156 </r>
       <r>     5.7267     2.1864    40.5636 </r>
       <r>     5.7944     2.5193    40.7347 </r>
       <r>     5.8620     2.6542    40.9143 </r>
       <r>     5.9297     3.2531    41.1344 </r>
       <r>     5.9973     3.1083    41.3449 </r>
       <r>     6.0650     4.7535    41.6665 </r>
       <r>     6.1326     2.0550    41.8060 </r>
       <r>     6.2003     3.2305    42.0247 </r>
       <r>     6.2679     4.0156    42.2964 </r>
       <r>     6.3356     3.5669    42.5384 </r>
       <r>     6.4032     3.8275    42.7974 </r>
       <r>     6.4709     2.6936    42.9803 </r>
       <r>     6.5385     3.0750    43.1884 </r>
       <r>     6.6062     2.1371    43.3331 </r>
       <r>     6.6738     2.8927    43.5291 </r>
       <r>     6.7415     3.8897    43.7926 </r>
       <r>     6.8091     2.5153    43.9629 </r>
       <r>     6.8768     4.2707    44.2524 </r>
       <r>     6.9444     4.3036    44.5442 </r>
       <r>     7.0121     2.7516    44.7313 </r>
       <r>     7.0797     3.8856    44.9944 </r>
       <r>     7.1474     3.7026    45.2455 </r>
       <r>     7.2150     3.0525    45.4527 </r>
       <r>     7.2827     3.1375    45.6650 </r>
       <r>     7.3503     2.9046    45.8615 </r>
       <r>     7.4180     3.2298    46.0801 </r>
       <r>     7.4856     2.6247    46.2588 </r>
       <r>     7.5533     2.1041    46.4014 </r>
       <r>     7.6209     3.2053    46.6183 </r>
       <r>     7.6886     2.8175    46.8096 </r>
       <r>     7.7562     2.6777    46.9908 </r>
       <r>     7.8239     1.9343    47.1222 </r>
       <r>     7.8915     1.9886    47.2572 </r>
       <r>     7.9592     3.0665    47.4649 </r>
       <r>     8.0268     2.4181    47.6285 </r>
       <r>     8.0945     1.4364    47.7266 </r>
       <r>     8.1621     2.2180    47.8767 </r>
       <r>     8.2298     0.9788    47.9429 </r>
       <r>     8.2974     0.6801    47.9896 </r>
       <r>     8.3651     0.1539    48.0000 </r>
       <r>     8.4327     0.0000    48.0000 </r>
       <r>     8.5004     0.0000    48.0000 </r>
       <r>     8.5680     0.0000    48.0000 </r>
       <r>     8.6357     0.0000    48.0000 </r>
       <r>     8.7033     0.0000    48.0000 </r>
       <r>     8.7710     0.0000    48.0000 </r>
       <r>     8.8386     0.0000    48.0000 </r>
       <r>     8.9063     0.0000    48.0000 </r>
       <r>     8.9740     0.0000    48.0000 </r>
       <r>     9.0416     0.0000    48.0000 </r>
       <r>     9.1093     0.0000    48.0000 </r>
       <r>     9.1769     0.0000    48.0000 </r>
       <r>     9.2446     0.0000    48.0000 </r>
      </set>
     </set>
    </array>
   </total>
  </dos>
 </calculation>
 <structure name="finalpos" >
  <crystal>
   <varray name="basis" >
    <v>       2.43012168       6.43263155       0.00000000 </v>
    <v>      -2.43012168       6.43263155       0.00000000 </v>
    <v>       0.00000000       0.00000000       4.83363599 </v>
   </varray>
   <i name="volume">    151.11954365 </i>
   <varray name="rec_basis" >
    <v>       0.20575101       0.07772869       0.00000000 </v>
    <v>      -0.20575101       0.07772869       0.00000000 </v>
    <v>       0.00000000       0.00000000       0.20688360 </v>
   </varray>
  </crystal>
  <varray name="positions" >
   <v>       0.60326686       0.60326678       0.75000006 </v>
   <v>       0.39673322       0.39673322       0.25000002 </v>
   <v>       0.85390383       0.85390375       0.75000006 </v>
   <v>       0.14609625       0.14609625       0.25000002 </v>
  </varray>
 </structure>
</modeling>
