
     Program PWSCF v.7.1 starts on  3Jan2024 at 14:28:17 

     This program is part of the open-source Quantum ESPRESSO suite
     for quantum simulation of materials; please cite
         "P. Giannozzi et al., J. Phys.:Condens. Matter 21 395502 (2009);
         "P. Giannozzi et al., J. Phys.:Condens. Matter 29 465901 (2017);
         "P. Giannozzi et al., J. Chem. Phys. 152 154105 (2020);
          URL http://www.quantum-espresso.org", 
     in publications or presentations arising from this work. More details at
     http://www.quantum-espresso.org/quote

     Parallel version (MPI), running on     8 processors

     MPI processes distributed on     1 nodes
     120288 MiB available memory on the printing compute node when the environment starts
 
     Reading input from pw_mp-2064_scf_k3000_E65.in
Warning: card &CELL ignored
Warning: card / ignored

     Current dimensions of program PWSCF are:
     Max number of different atomic species (ntypx) = 10
     Max number of k-points (npk) =  40000
     Max angular momentum in pseudopotentials (lmaxx) =  4
 
     R & G space division:  proc/nbgrp/npool/nimage =       8
     Subspace diagonalization in iterative solution of the eigenvalue problem:
     a serial algorithm will be used

 
     Parallelization info
     --------------------
     sticks:   dense  smooth     PW     G-vecs:    dense   smooth      PW
     Min         105     105     31                 2289     2289     383
     Max         106     106     32                 2292     2292     386
     Sum         845     845    253                18325    18325    3071
 
     Using Slab Decomposition
 


     bravais-lattice index     =            1
     lattice parameter (alat)  =       6.3692  a.u.
     unit-cell volume          =     258.3801 (a.u.)^3
     number of atoms/cell      =            2
     number of atomic types    =            2
     number of electrons       =        16.00
     number of Kohn-Sham states=           16
     kinetic-energy cutoff     =      65.0000  Ry
     charge density cutoff     =     260.0000  Ry
     scf convergence threshold =      1.0E-10
     mixing beta               =       0.7000
     number of iterations used =            8  plain     mixing
     Exchange-correlation= PBE
                           (   1   4   3   4   0   0   0)

     celldm(1)=   6.369222  celldm(2)=   0.000000  celldm(3)=   0.000000
     celldm(4)=   0.000000  celldm(5)=   0.000000  celldm(6)=   0.000000

     crystal axes: (cart. coord. in units of alat)
               a(1) = (   1.000000   0.000000   0.000000 )  
               a(2) = (   0.000000   1.000000   0.000000 )  
               a(3) = (   0.000000   0.000000   1.000000 )  

     reciprocal axes: (cart. coord. in units 2 pi/alat)
               b(1) = (  1.000000  0.000000  0.000000 )  
               b(2) = (  0.000000  1.000000  0.000000 )  
               b(3) = (  0.000000  0.000000  1.000000 )  


     PseudoPot. # 1 for F  read from file:
     /usr/scratch4/magr4985/MG/devEb/pseudo/SG15/F.upf
     MD5 check sum: 24dce47753c7134a0159dc9c6586d93a
     Pseudo is Norm-conserving, Zval =  7.0
     Generated using ONCVPSP code by D. R. Hamann
     Using radial grid of  602 points,  4 beta functions with: 
                l(1) =   0
                l(2) =   0
                l(3) =   1
                l(4) =   1

     PseudoPot. # 2 for Rb read from file:
     /usr/scratch4/magr4985/MG/devEb/pseudo/SG15/Rb.upf
     MD5 check sum: 083fcde99d2d8624b357fda38a9b1c57
     Pseudo is Norm-conserving, Zval =  9.0
     Generated using ONCVPSP code by D. R. Hamann
     Using radial grid of  602 points,  6 beta functions with: 
                l(1) =   0
                l(2) =   0
                l(3) =   1
                l(4) =   1
                l(5) =   2
                l(6) =   2

     atomic species   valence    mass     pseudopotential
        F              7.00    18.99840     F ( 1.00)
        Rb             9.00    85.46780     Rb( 1.00)

     48 Sym. Ops., with inversion, found



   Cartesian axes

     site n.     atom                  positions (alat units)
         1           Rb  tau(   1) = (   0.0000000   0.0000000   0.0000000  )
         2           F   tau(   2) = (   0.5000000   0.5000000   0.5000000  )

     number of k points=    84  Gaussian smearing, width (Ry)=  0.0005
                       cart. coord. in units 2pi/alat
        k(    1) = (   0.0000000   0.0000000   0.0000000), wk =   0.0011574
        k(    2) = (   0.0000000   0.0000000   0.0833333), wk =   0.0069444
        k(    3) = (   0.0000000   0.0000000   0.1666667), wk =   0.0069444
        k(    4) = (   0.0000000   0.0000000   0.2500000), wk =   0.0069444
        k(    5) = (   0.0000000   0.0000000   0.3333333), wk =   0.0069444
        k(    6) = (   0.0000000   0.0000000   0.4166667), wk =   0.0069444
        k(    7) = (   0.0000000   0.0000000  -0.5000000), wk =   0.0034722
        k(    8) = (   0.0000000   0.0833333   0.0833333), wk =   0.0138889
        k(    9) = (   0.0000000   0.0833333   0.1666667), wk =   0.0277778
        k(   10) = (   0.0000000   0.0833333   0.2500000), wk =   0.0277778
        k(   11) = (   0.0000000   0.0833333   0.3333333), wk =   0.0277778
        k(   12) = (   0.0000000   0.0833333   0.4166667), wk =   0.0277778
        k(   13) = (   0.0000000   0.0833333  -0.5000000), wk =   0.0138889
        k(   14) = (   0.0000000   0.1666667   0.1666667), wk =   0.0138889
        k(   15) = (   0.0000000   0.1666667   0.2500000), wk =   0.0277778
        k(   16) = (   0.0000000   0.1666667   0.3333333), wk =   0.0277778
        k(   17) = (   0.0000000   0.1666667   0.4166667), wk =   0.0277778
        k(   18) = (   0.0000000   0.1666667  -0.5000000), wk =   0.0138889
        k(   19) = (   0.0000000   0.2500000   0.2500000), wk =   0.0138889
        k(   20) = (   0.0000000   0.2500000   0.3333333), wk =   0.0277778
        k(   21) = (   0.0000000   0.2500000   0.4166667), wk =   0.0277778
        k(   22) = (   0.0000000   0.2500000  -0.5000000), wk =   0.0138889
        k(   23) = (   0.0000000   0.3333333   0.3333333), wk =   0.0138889
        k(   24) = (   0.0000000   0.3333333   0.4166667), wk =   0.0277778
        k(   25) = (   0.0000000   0.3333333  -0.5000000), wk =   0.0138889
        k(   26) = (   0.0000000   0.4166667   0.4166667), wk =   0.0138889
        k(   27) = (   0.0000000   0.4166667  -0.5000000), wk =   0.0138889
        k(   28) = (   0.0000000  -0.5000000  -0.5000000), wk =   0.0034722
        k(   29) = (   0.0833333   0.0833333   0.0833333), wk =   0.0092593
        k(   30) = (   0.0833333   0.0833333   0.1666667), wk =   0.0277778
        k(   31) = (   0.0833333   0.0833333   0.2500000), wk =   0.0277778
        k(   32) = (   0.0833333   0.0833333   0.3333333), wk =   0.0277778
        k(   33) = (   0.0833333   0.0833333   0.4166667), wk =   0.0277778
        k(   34) = (   0.0833333   0.0833333  -0.5000000), wk =   0.0138889
        k(   35) = (   0.0833333   0.1666667   0.1666667), wk =   0.0277778
        k(   36) = (   0.0833333   0.1666667   0.2500000), wk =   0.0555556
        k(   37) = (   0.0833333   0.1666667   0.3333333), wk =   0.0555556
        k(   38) = (   0.0833333   0.1666667   0.4166667), wk =   0.0555556
        k(   39) = (   0.0833333   0.1666667  -0.5000000), wk =   0.0277778
        k(   40) = (   0.0833333   0.2500000   0.2500000), wk =   0.0277778
        k(   41) = (   0.0833333   0.2500000   0.3333333), wk =   0.0555556
        k(   42) = (   0.0833333   0.2500000   0.4166667), wk =   0.0555556
        k(   43) = (   0.0833333   0.2500000  -0.5000000), wk =   0.0277778
        k(   44) = (   0.0833333   0.3333333   0.3333333), wk =   0.0277778
        k(   45) = (   0.0833333   0.3333333   0.4166667), wk =   0.0555556
        k(   46) = (   0.0833333   0.3333333  -0.5000000), wk =   0.0277778
        k(   47) = (   0.0833333   0.4166667   0.4166667), wk =   0.0277778
        k(   48) = (   0.0833333   0.4166667  -0.5000000), wk =   0.0277778
        k(   49) = (   0.0833333  -0.5000000  -0.5000000), wk =   0.0069444
        k(   50) = (   0.1666667   0.1666667   0.1666667), wk =   0.0092593
        k(   51) = (   0.1666667   0.1666667   0.2500000), wk =   0.0277778
        k(   52) = (   0.1666667   0.1666667   0.3333333), wk =   0.0277778
        k(   53) = (   0.1666667   0.1666667   0.4166667), wk =   0.0277778
        k(   54) = (   0.1666667   0.1666667  -0.5000000), wk =   0.0138889
        k(   55) = (   0.1666667   0.2500000   0.2500000), wk =   0.0277778
        k(   56) = (   0.1666667   0.2500000   0.3333333), wk =   0.0555556
        k(   57) = (   0.1666667   0.2500000   0.4166667), wk =   0.0555556
        k(   58) = (   0.1666667   0.2500000  -0.5000000), wk =   0.0277778
        k(   59) = (   0.1666667   0.3333333   0.3333333), wk =   0.0277778
        k(   60) = (   0.1666667   0.3333333   0.4166667), wk =   0.0555556
        k(   61) = (   0.1666667   0.3333333  -0.5000000), wk =   0.0277778
        k(   62) = (   0.1666667   0.4166667   0.4166667), wk =   0.0277778
        k(   63) = (   0.1666667   0.4166667  -0.5000000), wk =   0.0277778
        k(   64) = (   0.1666667  -0.5000000  -0.5000000), wk =   0.0069444
        k(   65) = (   0.2500000   0.2500000   0.2500000), wk =   0.0092593
        k(   66) = (   0.2500000   0.2500000   0.3333333), wk =   0.0277778
        k(   67) = (   0.2500000   0.2500000   0.4166667), wk =   0.0277778
        k(   68) = (   0.2500000   0.2500000  -0.5000000), wk =   0.0138889
        k(   69) = (   0.2500000   0.3333333   0.3333333), wk =   0.0277778
        k(   70) = (   0.2500000   0.3333333   0.4166667), wk =   0.0555556
        k(   71) = (   0.2500000   0.3333333  -0.5000000), wk =   0.0277778
        k(   72) = (   0.2500000   0.4166667   0.4166667), wk =   0.0277778
        k(   73) = (   0.2500000   0.4166667  -0.5000000), wk =   0.0277778
        k(   74) = (   0.2500000  -0.5000000  -0.5000000), wk =   0.0069444
        k(   75) = (   0.3333333   0.3333333   0.3333333), wk =   0.0092593
        k(   76) = (   0.3333333   0.3333333   0.4166667), wk =   0.0277778
        k(   77) = (   0.3333333   0.3333333  -0.5000000), wk =   0.0138889
        k(   78) = (   0.3333333   0.4166667   0.4166667), wk =   0.0277778
        k(   79) = (   0.3333333   0.4166667  -0.5000000), wk =   0.0277778
        k(   80) = (   0.3333333  -0.5000000  -0.5000000), wk =   0.0069444
        k(   81) = (   0.4166667   0.4166667   0.4166667), wk =   0.0092593
        k(   82) = (   0.4166667   0.4166667  -0.5000000), wk =   0.0138889
        k(   83) = (   0.4166667  -0.5000000  -0.5000000), wk =   0.0069444
        k(   84) = (  -0.5000000  -0.5000000  -0.5000000), wk =   0.0011574

     Dense  grid:    18325 G-vectors     FFT dimensions: (  36,  36,  36)

     Estimated max dynamical RAM per process >      10.42 MB

     Estimated total dynamical RAM >      83.33 MB

     Initial potential from superposition of free atoms

     starting charge      15.6934, renormalised to      16.0000
     Starting wfcs are random

     total cpu time spent up to now is        0.4 secs

     Self-consistent Calculation

     iteration #  1     ecut=    65.00 Ry     beta= 0.70
     Davidson diagonalization with overlap
     c_bands:  1 eigenvalues not converged
     c_bands:  1 eigenvalues not converged
     c_bands:  1 eigenvalues not converged
     c_bands:  1 eigenvalues not converged
     c_bands:  1 eigenvalues not converged
     c_bands:  2 eigenvalues not converged
     c_bands:  1 eigenvalues not converged
     c_bands:  1 eigenvalues not converged
     c_bands:  1 eigenvalues not converged
     c_bands:  1 eigenvalues not converged
     c_bands:  1 eigenvalues not converged
     c_bands:  1 eigenvalues not converged
     c_bands:  1 eigenvalues not converged
     c_bands:  1 eigenvalues not converged
     c_bands:  1 eigenvalues not converged
     c_bands:  1 eigenvalues not converged
     ethr =  5.00E-06,  avg # of iterations = 17.3

     total cpu time spent up to now is        3.6 secs

     total energy              =     -96.84768045 Ry
     estimated scf accuracy    <       0.13553605 Ry

     iteration #  2     ecut=    65.00 Ry     beta= 0.70
     Davidson diagonalization with overlap
     ethr =  8.47E-04,  avg # of iterations =  2.7

     total cpu time spent up to now is        4.5 secs

     total energy              =     -96.87374390 Ry
     estimated scf accuracy    <       0.13018040 Ry

     iteration #  3     ecut=    65.00 Ry     beta= 0.70
     Davidson diagonalization with overlap
     ethr =  8.14E-04,  avg # of iterations =  2.0

     total cpu time spent up to now is        5.2 secs

     total energy              =     -96.90282785 Ry
     estimated scf accuracy    <       0.00248412 Ry

     iteration #  4     ecut=    65.00 Ry     beta= 0.70
     Davidson diagonalization with overlap
     ethr =  1.55E-05,  avg # of iterations =  2.5

     total cpu time spent up to now is        5.9 secs

     total energy              =     -96.90320973 Ry
     estimated scf accuracy    <       0.00003151 Ry

     iteration #  5     ecut=    65.00 Ry     beta= 0.70
     Davidson diagonalization with overlap
     ethr =  1.97E-07,  avg # of iterations =  4.9

     total cpu time spent up to now is        6.9 secs

     total energy              =     -96.90321355 Ry
     estimated scf accuracy    <       0.00000228 Ry

     iteration #  6     ecut=    65.00 Ry     beta= 0.70
     Davidson diagonalization with overlap
     ethr =  1.42E-08,  avg # of iterations =  3.3

     total cpu time spent up to now is        8.1 secs

     total energy              =     -96.90321414 Ry
     estimated scf accuracy    <       0.00000021 Ry

     iteration #  7     ecut=    65.00 Ry     beta= 0.70
     Davidson diagonalization with overlap
     ethr =  1.34E-09,  avg # of iterations =  3.0

     total cpu time spent up to now is        9.6 secs

     total energy              =     -96.90321419 Ry
     estimated scf accuracy    <          5.2E-09 Ry

     iteration #  8     ecut=    65.00 Ry     beta= 0.70
     Davidson diagonalization with overlap
     ethr =  3.28E-11,  avg # of iterations =  4.2

     total cpu time spent up to now is       10.5 secs

     total energy              =     -96.90321419 Ry
     estimated scf accuracy    <          1.6E-09 Ry

     iteration #  9     ecut=    65.00 Ry     beta= 0.70
     Davidson diagonalization with overlap
     ethr =  9.93E-12,  avg # of iterations =  2.2

     total cpu time spent up to now is       11.2 secs

     End of self-consistent calculation

          k = 0.0000 0.0000 0.0000 (  2301 PWs)   bands (ev):

   -20.2039 -15.1352  -3.5499  -3.5499  -3.5499   3.5933   3.5933   3.5933
     9.9987  11.2951  11.2951  18.4247  18.4247  18.4247  24.0038  24.0038

          k = 0.0000 0.0000 0.0833 (  2297 PWs)   bands (ev):

   -20.1902 -15.1400  -3.6412  -3.5360  -3.5360   3.5068   3.5792   3.5792
    10.2039  11.3529  11.5127  18.1970  18.1970  18.4589  23.5151  24.1043

          k = 0.0000 0.0000 0.1667 (  2297 PWs)   bands (ev):

   -20.1522 -15.1536  -3.8805  -3.4976  -3.4976   3.2851   3.5403   3.5403
    10.7248  11.5195  12.1612  17.6707  17.6707  18.5550  22.5006  22.6607

          k = 0.0000 0.0000 0.2500 (  2284 PWs)   bands (ev):

   -20.0993 -15.1736  -4.1865  -3.4441  -3.4441   3.0118   3.4852   3.4852
    11.3763  11.7710  13.1663  17.0956  17.0956  18.6928  21.0785  21.8628

          k = 0.0000 0.0000 0.3333 (  2316 PWs)   bands (ev):

   -20.0450 -15.1952  -4.4719  -3.3893  -3.3893   2.7628   3.4269   3.4269
    12.0153  12.0591  14.2787  16.6226  16.6226  18.8395  19.9411  21.3914

          k = 0.0000 0.0000 0.4167 (  2280 PWs)   bands (ev):

   -20.0045 -15.2120  -4.6696  -3.3483  -3.3483   2.5940   3.3842   3.3842
    12.3023  12.5128  15.1024  16.3213  16.3213  18.9532  19.1847  21.5087

          k = 0.0000 0.0000-0.5000 (  2272 PWs)   bands (ev):

   -19.9895 -15.2184  -4.7398  -3.3331  -3.3331   2.5345   3.3681   3.3681
    12.4004  12.7084  15.3784  16.2184  16.2184  18.9150  18.9964  21.8524

          k = 0.0000 0.0833 0.0833 (  2287 PWs)   bands (ev):

   -20.1766 -15.1441  -3.6506  -3.6073  -3.5224   3.4371   3.5631   3.5670
    10.3984  11.4916  11.6438  17.9395  18.1400  18.3035  23.5558  23.6327

          k = 0.0000 0.0833 0.1667 (  2286 PWs)   bands (ev):

   -20.1391 -15.1559  -3.8774  -3.5905  -3.4847   3.2488   3.5255   3.5325
    10.8879  11.6895  12.2493  17.3609  17.6490  18.3170  22.6001  22.9676

          k = 0.0000 0.0833 0.2500 (  2287 PWs)   bands (ev):

   -20.0870 -15.1732  -4.1866  -3.5461  -3.4323   3.0124   3.4727   3.4832
    11.4918  11.9496  13.2252  16.7619  17.0667  18.3987  21.3547  22.1431

          k = 0.0000 0.0833 0.3333 (  2293 PWs)   bands (ev):

   -20.0335 -15.1921  -4.4754  -3.5006  -3.3786   2.7970   3.4162   3.4314
    12.0506  12.2850  14.2205  16.3835  16.5870  18.4852  20.3227  21.6155

          k = 0.0000 0.0833 0.4167 (  2287 PWs)   bands (ev):

   -19.9936 -15.2068  -4.6755  -3.4667  -3.3386   2.6503   3.3730   3.3923
    12.3801  12.6887  14.6854  16.2811  16.4416  18.5499  19.6602  21.6066

          k = 0.0000 0.0833-0.5000 (  2302 PWs)   bands (ev):

   -19.9788 -15.2125  -4.7466  -3.4543  -3.3237   2.5981   3.3562   3.3775
    12.4876  12.8822  14.7179  16.1768  16.5793  18.5738  19.4358  21.8519

          k = 0.0000 0.1667 0.1667 (  2285 PWs)   bands (ev):

   -20.1031 -15.1625  -3.9139  -3.7883  -3.4492   3.1447   3.4898   3.5099
    11.2678  12.1111  12.6213  16.7129  17.4767  17.9011  22.5938  22.7073

          k = 0.0000 0.1667 0.2500 (  2289 PWs)   bands (ev):

   -20.0530 -15.1725  -4.1908  -3.8086  -3.3998   3.0049   3.4427   3.4771
    11.7006  12.4909  13.4456  16.1380  16.9723  17.7719  21.5936  22.7042

          k = 0.0000 0.1667 0.3333 (  2279 PWs)   bands (ev):

   -20.0018 -15.1837  -4.4860  -3.7888  -3.3494   2.8756   3.3906   3.4423
    12.1016  12.8626  14.1026  16.1016  16.4871  17.7370  20.8301  22.4519

          k = 0.0000 0.1667 0.4167 (  2280 PWs)   bands (ev):

   -19.9635 -15.1927  -4.6922  -3.7726  -3.3118   2.7885   3.3474   3.4153
    12.3948  13.2593  14.0229  16.1719  16.7123  17.7186  20.5567  22.0076

          k = 0.0000 0.1667-0.5000 (  2288 PWs)   bands (ev):

   -19.9494 -15.1962  -4.7655  -3.7666  -3.2979   2.7581   3.3300   3.4052
    12.5039  13.6214  13.7048  16.0640  17.0255  17.7121  20.6213  21.8374

          k = 0.0000 0.2500 0.2500 (  2286 PWs)   bands (ev):

   -20.0059 -15.1722  -4.2489  -4.0896  -3.3548   2.9824   3.4052   3.4674
    11.9284  12.9292  14.0653  15.7314  16.7437  17.2251  21.5948  21.9790

          k = 0.0000 0.2500 0.3333 (  2278 PWs)   bands (ev):

   -19.9578 -15.1726  -4.5044  -4.1494  -3.3089   2.9594   3.3616   3.4564
    12.1591  12.9778  14.6602  16.1123  16.3391  16.9872  21.1338  21.9748

          k = 0.0000 0.2500 0.4167 (  2285 PWs)   bands (ev):

   -19.9220 -15.1735  -4.7163  -4.1561  -3.2748   2.9494   3.3193   3.4473
    12.3604  12.8632  14.7948  16.0226  16.8872  17.0613  21.1310  22.0557

          k = 0.0000 0.2500-0.5000 (  2270 PWs)   bands (ev):

   -19.9087 -15.1739  -4.7926  -4.1575  -3.2622   2.9491   3.3009   3.4440
    12.4635  12.7764  14.8262  15.9108  16.8552  17.4795  21.7057  21.9799

          k = 0.0000 0.3333 0.3333 (  2268 PWs)   bands (ev):

   -19.9130 -15.1618  -4.5598  -4.4464  -3.2678   3.0303   3.3330   3.4703
    12.1858  12.6368  15.7752  16.1343  16.4504  16.4509  21.3828  21.4482

          k = 0.0000 0.3333 0.4167 (  2287 PWs)   bands (ev):

   -19.8798 -15.1541  -4.7422  -4.5083  -3.2374   3.0879   3.2997   3.4794
    12.1171  12.4404  15.8715  16.2106  16.2320  17.4160  21.2768  21.7571

          k = 0.0000 0.3333-0.5000 (  2286 PWs)   bands (ev):

   -19.8675 -15.1514  -4.8208  -4.5165  -3.2261   3.1165   3.2797   3.4826
    12.0512  12.4104  15.7585  16.1787  16.2973  17.9090  21.3220  22.3613

          k = 0.0000 0.4167 0.4167 (  2284 PWs)   bands (ev):

   -19.8484 -15.1400  -4.7743  -4.7379  -3.2096   3.1849   3.2846   3.5031
    11.7325  12.3804  15.7419  15.8389  17.4575  17.7742  21.0478  22.1540

          k = 0.0000 0.4167-0.5000 (  2280 PWs)   bands (ev):

   -19.8368 -15.1348  -4.8423  -4.7631  -3.1994   3.2289   3.2701   3.5116
    11.5912  12.3669  15.6477  15.7524  17.6966  18.2252  20.9589  22.7224

          k = 0.0000-0.5000-0.5000 (  2296 PWs)   bands (ev):

   -19.8256 -15.1287  -4.8504  -4.8504  -3.1895   3.2676   3.2676   3.5221
    11.4335  12.3501  15.6073  15.6073  18.3420  18.3420  20.8005  23.2935

          k = 0.0833 0.0833 0.0833 (  2277 PWs)   bands (ev):

   -20.1632 -15.1476  -3.6360  -3.6360  -3.5786   3.3864   3.5478   3.5478
    10.5883  11.6986  11.6986  17.8866  17.8866  18.0948  23.6524  23.6524

          k = 0.0833 0.0833 0.1667 (  2285 PWs)   bands (ev):

   -20.1263 -15.1577  -3.8714  -3.5955  -3.5646   3.2304   3.5044   3.5176
    11.0630  11.8561  12.3245  17.3082  17.3788  18.0354  22.9837  23.0099

          k = 0.0833 0.0833 0.2500 (  2289 PWs)   bands (ev):

   -20.0748 -15.1726  -4.1846  -3.5389  -3.5318   3.0234   3.4427   3.4857
    11.6500  12.0941  13.2820  16.6771  16.8019  18.0750  21.7769  22.2827

          k = 0.0833 0.0833 0.3333 (  2291 PWs)   bands (ev):

   -20.0221 -15.1889  -4.4770  -3.4985  -3.4810   2.8320   3.3783   3.4519
    12.2388  12.3675  14.1841  16.1471  16.5567  18.1246  20.7592  21.7628

          k = 0.0833 0.0833 0.4167 (  2286 PWs)   bands (ev):

   -19.9827 -15.2018  -4.6795  -3.4740  -3.4376   2.7013   3.3298   3.4250
    12.5999  12.7288  14.4809  15.7936  16.8747  18.1644  20.0856  21.6819

          k = 0.0833 0.0833-0.5000 (  2296 PWs)   bands (ev):

   -19.9681 -15.2067  -4.7514  -3.4651  -3.4215   2.6548   3.3116   3.4144
    12.6944  12.9410  14.4526  15.6675  17.1323  18.1778  19.8485  21.8533

          k = 0.0833 0.1667 0.1667 (  2294 PWs)   bands (ev):

   -20.0907 -15.1630  -3.8974  -3.7900  -3.5476   3.1577   3.4694   3.4761
    11.4685  12.2687  12.6674  16.6919  17.1995  17.5332  23.0305  23.1417

          k = 0.0833 0.1667 0.2500 (  2294 PWs)   bands (ev):

   -20.0412 -15.1711  -4.1825  -3.8013  -3.5051   3.0353   3.4055   3.4602
    11.9219  12.6004  13.4908  16.1029  16.6814  17.4002  22.1338  23.0294

          k = 0.0833 0.1667 0.3333 (  2274 PWs)   bands (ev):

   -19.9906 -15.1803  -4.4821  -3.7784  -3.4590   2.9116   3.3356   3.4547
    12.3442  12.9259  14.1043  15.8248  16.4904  17.3763  21.3507  22.5020

          k = 0.0833 0.1667 0.4167 (  2279 PWs)   bands (ev):

   -19.9528 -15.1878  -4.6908  -3.7617  -3.4231   2.8248   3.2807   3.4503
    12.6618  13.2778  13.9977  15.5746  17.1521  17.3838  20.9524  22.0317

          k = 0.0833 0.1667-0.5000 (  2280 PWs)   bands (ev):

   -19.9389 -15.1908  -4.7649  -3.7559  -3.4095   2.7943   3.2599   3.4483
    12.7831  13.6193  13.6779  15.4627  17.3628  17.5840  20.9140  21.8475

          k = 0.0833 0.2500 0.2500 (  2283 PWs)   bands (ev):

   -19.9945 -15.1696  -4.2301  -4.0892  -3.4622   3.0176   3.3773   3.4283
    12.1726  13.0434  14.0941  15.6894  16.4873  16.8315  22.2351  22.3721

          k = 0.0833 0.2500 0.3333 (  2282 PWs)   bands (ev):

   -19.9469 -15.1689  -4.4929  -4.1391  -3.4171   2.9839   3.3144   3.4391
    12.4094  13.0850  14.6623  15.7687  16.3824  16.6861  21.6363  22.4490

          k = 0.0833 0.2500 0.4167 (  2284 PWs)   bands (ev):

   -19.9115 -15.1688  -4.7075  -4.1414  -3.3828   2.9627   3.2500   3.4583
    12.6135  12.9582  14.7935  15.5403  16.5658  17.4192  21.4452  22.5010

          k = 0.0833 0.2500-0.5000 (  2278 PWs)   bands (ev):

   -19.8984 -15.1689  -4.7846  -4.1415  -3.3699   2.9580   3.2225   3.4662
    12.7519  12.8314  14.8289  15.4265  16.5572  17.9297  21.7793  22.2284

          k = 0.0833 0.3333 0.3333 (  2283 PWs)   bands (ev):

   -19.9025 -15.1577  -4.5391  -4.4385  -3.3739   3.0297   3.2965   3.4341
    12.3962  12.8082  15.5739  15.9112  16.1427  16.6716  21.7997  21.9155

          k = 0.0833 0.3333 0.4167 (  2287 PWs)   bands (ev):

   -19.8695 -15.1497  -4.7262  -4.4910  -3.3413   3.0700   3.2465   3.4547
    12.2387  12.7135  15.5028  15.8247  16.3756  17.6649  21.5269  22.1914

          k = 0.0833 0.3333-0.5000 (  2282 PWs)   bands (ev):

   -19.8573 -15.1469  -4.8056  -4.4969  -3.3292   3.0987   3.2093   3.4667
    12.1521  12.7082  15.3940  15.8277  16.4227  18.2526  21.5021  22.6174

          k = 0.0833 0.4167 0.4167 (  2284 PWs)   bands (ev):

   -19.8383 -15.1357  -4.7524  -4.7201  -3.3104   3.1435   3.2421   3.4530
    11.8563  12.6809  15.4560  15.5192  17.6271  17.9754  21.2496  22.4457

          k = 0.0833 0.4167-0.5000 (  2286 PWs)   bands (ev):

   -19.8268 -15.1306  -4.8219  -4.7414  -3.2990   3.1908   3.2160   3.4552
    11.7206  12.6722  15.3575  15.4747  17.8581  18.5034  21.0794  22.8726

          k = 0.0833-0.5000-0.5000 (  2280 PWs)   bands (ev):

   -19.8156 -15.1246  -4.8280  -4.8280  -3.2878   3.2230   3.2230   3.4475
    11.5730  12.6583  15.3414  15.3414  18.5997  18.5997  20.8192  23.3091

          k = 0.1667 0.1667 0.1667 (  2298 PWs)   bands (ev):

   -20.0563 -15.1645  -3.8516  -3.8516  -3.7479   3.1652   3.4122   3.4122
    11.9271  12.7999  12.7999  16.5834  16.5834  16.8680  23.5523  23.5523

          k = 0.1667 0.1667 0.2500 (  2296 PWs)   bands (ev):

   -20.0085 -15.1674  -4.1631  -3.7875  -3.7697   3.0988   3.3316   3.4020
    12.3970  13.0005  13.6464  15.9259  16.1783  16.6753  23.2312  23.2608

          k = 0.1667 0.1667 0.3333 (  2270 PWs)   bands (ev):

   -19.9597 -15.1711  -4.4726  -3.7708  -3.7216   2.9921   3.2480   3.4349
    12.8226  13.2352  14.1076  15.3749  16.4494  16.6685  22.5174  22.6350

          k = 0.1667 0.1667 0.4167 (  2280 PWs)   bands (ev):

   -19.9234 -15.1744  -4.6874  -3.7712  -3.6720   2.9096   3.1840   3.4637
    13.1981  13.4455  13.9143  14.9961  16.6247  17.5684  21.9673  22.1066

          k = 0.1667 0.1667-0.5000 (  2260 PWs)   bands (ev):

   -19.9099 -15.1758  -4.7637  -3.7714  -3.6536   2.8805   3.1606   3.4749
    13.4620  13.5376  13.6642  14.8537  16.6322  18.1810  21.7702  21.8589

          k = 0.1667 0.2500 0.2500 (  2279 PWs)   bands (ev):

   -19.9632 -15.1627  -4.1780  -4.0889  -3.7418   3.1045   3.2995   3.3271
    12.7470  13.4512  14.1720  15.5483  15.9298  16.1405  23.2634  23.6960

          k = 0.1667 0.2500 0.3333 (  2276 PWs)   bands (ev):

   -19.9170 -15.1587  -4.4629  -4.1094  -3.6986   3.0384   3.2040   3.3801
    12.9442  13.5288  14.6434  15.2099  15.9353  16.5044  22.7136  23.5933

          k = 0.1667 0.2500 0.4167 (  2287 PWs)   bands (ev):

   -19.8826 -15.1561  -4.6842  -4.1020  -3.6626   2.9877   3.1183   3.4337
    12.9723  13.5555  14.7278  14.8956  15.9255  17.8083  22.1432  23.2624

          k = 0.1667 0.2500-0.5000 (  2278 PWs)   bands (ev):

   -19.8699 -15.1552  -4.7631  -4.0996  -3.6486   2.9728   3.0834   3.4536
    12.9473  13.5842  14.6982  14.8347  15.9233  18.5597  21.8429  22.9723

          k = 0.1667 0.3333 0.3333 (  2280 PWs)   bands (ev):

   -19.8735 -15.1465  -4.4815  -4.4171  -3.6508   3.0151   3.1958   3.3476
    12.7662  13.5030  15.0979  15.2067  16.1972  16.7205  22.6286  23.2145

          k = 0.1667 0.3333 0.4167 (  2281 PWs)   bands (ev):

   -19.8412 -15.1377  -4.6828  -4.4428  -3.6134   3.0087   3.1230   3.3748
    12.5204  13.5439  14.8512  15.2286  16.4590  18.0014  22.0982  23.2893

          k = 0.1667 0.3333-0.5000 (  2292 PWs)   bands (ev):

   -19.8293 -15.1345  -4.7637  -4.4427  -3.5993   3.0435   3.0518   3.3905
    12.4221  13.5660  14.7356  15.2562  16.4979  18.8290  21.7168  23.4653

          k = 0.1667 0.4167 0.4167 (  2289 PWs)   bands (ev):

   -19.8105 -15.1242  -4.6913  -4.6706  -3.5751   3.0279   3.1239   3.3215
    12.1892  13.5482  14.8979  14.9058  17.8983  18.2836  21.7233  23.1797

          k = 0.1667 0.4167-0.5000 (  2296 PWs)   bands (ev):

   -19.7992 -15.1192  -4.7650  -4.6810  -3.5608   3.0699   3.0847   3.3049
    12.0728  13.5498  14.7849  14.9210  18.1206  19.0188  21.3206  23.2817

          k = 0.1667-0.5000-0.5000 (  2300 PWs)   bands (ev):

   -19.7881 -15.1136  -4.7656  -4.7656  -3.5464   3.0980   3.0980   3.2520
    11.9525  13.5434  14.8029  14.8029  19.0906  19.0906  20.8709  23.3351

          k = 0.2500 0.2500 0.2500 (  2292 PWs)   bands (ev):

   -19.9197 -15.1536  -4.1049  -4.1049  -4.0808   3.1891   3.1891   3.2164
    13.1409  14.2702  14.2702  15.3708  15.3708  15.7935  24.1157  24.1157

          k = 0.2500 0.2500 0.3333 (  2286 PWs)   bands (ev):

   -19.8755 -15.1449  -4.4263  -4.0897  -4.0292   3.0751   3.0799   3.2974
    13.1832  14.3260  14.6413  14.9859  15.4290  16.5166  23.5438  24.4424

          k = 0.2500 0.2500 0.4167 (  2284 PWs)   bands (ev):

   -19.8427 -15.1387  -4.6534  -4.0916  -3.9721   2.9887   3.0008   3.3558
    13.0396  14.2795  14.7648  14.8490  15.3671  18.0546  22.5738  24.2202

          k = 0.2500 0.2500-0.5000 (  2278 PWs)   bands (ev):

   -19.8306 -15.1364  -4.7340  -4.0924  -3.9508   2.9564   2.9735   3.3759
    12.9628  14.2356  14.8228  14.8355  15.3439  18.9979  21.8684  24.0878

          k = 0.2500 0.3333 0.3333 (  2292 PWs)   bands (ev):

   -19.8334 -15.1311  -4.4004  -4.3888  -4.0031   2.9679   3.0542   3.2503
    13.0714  14.3590  14.5881  14.9942  16.2854  16.7289  23.5086  24.5591

          k = 0.2500 0.3333 0.4167 (  2291 PWs)   bands (ev):

   -19.8022 -15.1212  -4.6239  -4.3748  -3.9600   2.9021   2.9876   3.2461
    12.8568  14.2399  14.6073  14.9406  16.5212  18.2280  22.6247  24.4578

          k = 0.2500 0.3333-0.5000 (  2304 PWs)   bands (ev):

   -19.7906 -15.1176  -4.7055  -4.3682  -3.9431   2.8816   2.9555   3.2471
    12.7668  14.1627  14.6577  14.9302  16.5519  19.2765  21.8202  24.4722

          k = 0.2500 0.4167 0.4167 (  2301 PWs)   bands (ev):

   -19.7721 -15.1083  -4.6049  -4.6014  -3.9149   2.8727   2.9582   3.1442
    12.6391  14.3111  14.3640  14.9090  18.1068  18.4979  22.1989  23.8311

          k = 0.2500 0.4167-0.5000 (  2298 PWs)   bands (ev):

   -19.7610 -15.1036  -4.6849  -4.5958  -3.8974   2.8802   2.9336   3.1015
    12.5544  14.2404  14.3820  14.9074  18.3177  19.4477  21.5188  23.6602

          k = 0.2500-0.5000-0.5000 (  2300 PWs)   bands (ev):

   -19.7501 -15.0985  -4.6775  -4.6775  -3.8795   2.9237   2.9237   3.0041
    12.4732  14.2814  14.2814  14.9061  19.5090  19.5090  20.9433  23.2947

          k = 0.3333 0.3333 0.3333 (  2299 PWs)   bands (ev):

   -19.7927 -15.1158  -4.3760  -4.3162  -4.3162   2.9075   2.9075   3.1630
    13.1864  14.1807  14.1807  16.3799  16.3799  16.8653  24.1223  24.1223

          k = 0.3333 0.3333 0.4167 (  2307 PWs)   bands (ev):

   -19.7625 -15.1046  -4.5658  -4.3338  -4.2523   2.7969   2.8668   3.0940
    13.0860  13.9270  14.2032  16.4523  16.6766  18.3807  22.8708  24.4204

          k = 0.3333 0.3333-0.5000 (  2296 PWs)   bands (ev):

   -19.7514 -15.1005  -4.6461  -4.3271  -4.2284   2.7560   2.8554   3.0657
    13.0209  13.8418  14.2454  16.4795  16.6974  19.5609  21.8390  24.5026

          k = 0.3333 0.4167 0.4167 (  2303 PWs)   bands (ev):

   -19.7332 -15.0924  -4.5306  -4.5149  -4.2332   2.7340   2.7876   2.9561
    13.0810  13.8974  13.9591  16.5901  18.2481  18.6343  22.5192  23.7037

          k = 0.3333 0.4167-0.5000 (  2300 PWs)   bands (ev):

   -19.7223 -15.0879  -4.6019  -4.5074  -4.2131   2.7102   2.7750   2.8893
    13.0403  13.8365  13.9762  16.6059  18.4473  19.7226  21.6338  23.5422

          k = 0.3333-0.5000-0.5000 (  2300 PWs)   bands (ev):

   -19.7116 -15.0833  -4.5855  -4.5855  -4.1927   2.7442   2.7442   2.7744
    13.0068  13.8858  13.8858  16.6180  19.7773  19.7773  21.0176  23.0073

          k = 0.4167 0.4167 0.4167 (  2299 PWs)   bands (ev):

   -19.7043 -15.0807  -4.4859  -4.4465  -4.4465   2.6594   2.6594   2.7945
    13.3448  13.7134  13.7134  18.3322  18.3322  18.8354  22.6848  22.6848

          k = 0.4167 0.4167-0.5000 (  2300 PWs)   bands (ev):

   -19.6937 -15.0764  -4.5390  -4.4526  -4.4209   2.6116   2.6545   2.7133
    13.3700  13.6314  13.7285  18.3605  18.6460  19.8703  21.6011  22.7346

          k = 0.4167-0.5000-0.5000 (  2296 PWs)   bands (ev):

   -19.6831 -15.0721  -4.5155  -4.5155  -4.4113   2.6095   2.6095   2.6158
    13.4130  13.6461  13.6461  18.5113  19.9172  19.9172  21.0734  22.1783

          k =-0.5000-0.5000-0.5000 (  2320 PWs)   bands (ev):

   -19.6726 -15.0680  -4.4893  -4.4893  -4.4893   2.5591   2.5591   2.5591
    13.5660  13.5660  13.5660  19.9598  19.9598  19.9598  21.0941  21.0941

     the Fermi energy is     7.7886 ev

!    total energy              =     -96.90321419 Ry
     estimated scf accuracy    <          9.9E-13 Ry
     smearing contrib. (-TS)   =      -0.00000000 Ry
     internal energy E=F+TS    =     -96.90321419 Ry

     The total energy is F=E-TS. E is the sum of the following terms:
     one-electron contribution =     -28.86546841 Ry
     hartree contribution      =      22.61116376 Ry
     xc contribution           =     -16.87339475 Ry
     ewald contribution        =     -73.77551480 Ry

     convergence has been achieved in   9 iterations

     Writing all to output data dir out/mp-2064.save/
 
     init_run     :      0.30s CPU      0.33s WALL (       1 calls)
     electrons    :      9.53s CPU     10.85s WALL (       1 calls)

     Called by init_run:
     wfcinit      :      0.26s CPU      0.28s WALL (       1 calls)
     potinit      :      0.02s CPU      0.02s WALL (       1 calls)
     hinit0       :      0.01s CPU      0.02s WALL (       1 calls)

     Called by electrons:
     c_bands      :      8.55s CPU      9.76s WALL (       9 calls)
     sum_band     :      0.94s CPU      0.99s WALL (       9 calls)
     v_of_rho     :      0.03s CPU      0.03s WALL (      10 calls)
     mix_rho      :      0.00s CPU      0.00s WALL (       9 calls)

     Called by c_bands:
     init_us_2    :      0.13s CPU      0.14s WALL (    1596 calls)
     init_us_2:cp :      0.13s CPU      0.14s WALL (    1596 calls)
     cegterg      :      8.10s CPU      8.48s WALL (     756 calls)

     Called by *egterg:
     cdiaghg      :      1.30s CPU      1.36s WALL (    4290 calls)
     h_psi        :      6.18s CPU      6.48s WALL (    4374 calls)
     g_psi        :      0.06s CPU      0.06s WALL (    3534 calls)

     Called by h_psi:
     h_psi:calbec :      0.19s CPU      0.20s WALL (    4374 calls)
     vloc_psi     :      5.80s CPU      6.08s WALL (    4374 calls)
     add_vuspsi   :      0.13s CPU      0.14s WALL (    4374 calls)

     General routines
     calbec       :      0.18s CPU      0.20s WALL (    4374 calls)
     fft          :      0.01s CPU      0.02s WALL (      99 calls)
     ffts         :      0.00s CPU      0.00s WALL (       9 calls)
     fftw         :      5.93s CPU      6.22s WALL (  100002 calls)
 
     Parallel routines
 
     PWSCF        :      9.93s CPU     11.41s WALL

 
   This run was terminated on:  14:28:29   3Jan2024            

=------------------------------------------------------------------------------=
   JOB DONE.
=------------------------------------------------------------------------------=
