<?xml version="1.0" encoding="ISO-8859-1"?>
<modeling>
 <generator>
  <i name="program" type="string">vasp </i>
  <i name="version" type="string">5.4.4.18Apr17-6-g9f103f2a35  </i>
  <i name="subversion" type="string">(build Aug 24 2017 11:22:49) complex            parallel </i>
  <i name="platform" type="string">LinuxIFC </i>
  <i name="date" type="string">2024 04 11 </i>
  <i name="time" type="string">15:17:33 </i>
 </generator>
 <incar>
  <i type="string" name="PREC">accurate</i>
  <i type="string" name="ALGO"> Normal</i>
  <i type="int" name="NELM">   100</i>
  <i type="int" name="IBRION">     8</i>
  <i name="EDIFF">      0.00000001</i>
  <i name="SYMPREC">      0.00000001</i>
  <i name="ENCUT">    520.00000000</i>
  <i type="logical" name="LREAL"> F  </i>
  <i type="int" name="ISMEAR">     0</i>
  <i name="SIGMA">      0.01000000</i>
  <i type="logical" name="LWAVE"> F  </i>
  <v type="int" name="KPOINT_BSE">    -1     0     0     0</v>
  <i type="int" name="NELM">   100</i>
  <i type="logical" name="LPEAD"> T  </i>
  <i type="logical" name="LEPSILON"> T  </i>
 </incar>
 <structure name="primitive_cell" >
  <crystal>
   <varray name="basis" >
    <v>      -4.11810028       0.00000000       4.11810028 </v>
    <v>       0.00000000       4.11810028       4.11810028 </v>
    <v>      -4.11810028       4.11810028       0.00000000 </v>
   </varray>
   <i name="volume">    139.67566530 </i>
   <varray name="rec_basis" >
    <v>      -0.12141521      -0.12141521       0.12141521 </v>
    <v>       0.12141521       0.12141521       0.12141521 </v>
    <v>      -0.12141521       0.12141521      -0.12141521 </v>
   </varray>
  </crystal>
  <varray name="positions" >
   <v>       0.00000000       0.00000000       0.00000000 </v>
   <v>      -0.25000002      -0.24999987      -0.25000002 </v>
   <v>       0.25000002       0.25000010       0.24999994 </v>
   <v>       0.49999996      -0.49999996       0.49999996 </v>
  </varray>
 </structure>
 <varray name="primitive_index" >
  <v type="int" >        1 </v>
  <v type="int" >        3 </v>
  <v type="int" >        4 </v>
  <v type="int" >        2 </v>
 </varray>
 <kpoints>
  <generation param="Gamma">
   <v type="int" name="divisions">      10       10       10 </v>
   <v name="usershift">      0.00000000       0.00000000       0.00000000 </v>
   <v name="genvec1">      0.10000000       0.00000000       0.00000000 </v>
   <v name="genvec2">      0.00000000       0.10000000      -0.00000000 </v>
   <v name="genvec3">     -0.00000000      -0.00000000       0.10000000 </v>
   <v name="shift">      0.00000000       0.00000000       0.00000000 </v>
  </generation>
  <varray name="kpointlist" >
   <v>       0.00000000       0.00000000       0.00000000 </v>
   <v>       0.10000000       0.00000000      -0.00000000 </v>
   <v>       0.20000000       0.00000000      -0.00000000 </v>
   <v>       0.30000000      -0.00000000      -0.00000000 </v>
   <v>       0.40000000       0.00000000      -0.00000000 </v>
   <v>       0.50000000       0.00000000      -0.00000000 </v>
   <v>       0.00000000       0.10000000      -0.00000000 </v>
   <v>       0.10000000       0.10000000      -0.00000000 </v>
   <v>       0.20000000       0.10000000      -0.00000000 </v>
   <v>       0.30000000       0.10000000      -0.00000000 </v>
   <v>       0.40000000       0.10000000      -0.00000000 </v>
   <v>       0.50000000       0.10000000      -0.00000000 </v>
   <v>      -0.40000000       0.10000000       0.00000000 </v>
   <v>      -0.30000000       0.10000000       0.00000000 </v>
   <v>      -0.20000000       0.10000000       0.00000000 </v>
   <v>      -0.10000000       0.10000000      -0.00000000 </v>
   <v>       0.00000000       0.20000000      -0.00000000 </v>
   <v>       0.10000000       0.20000000      -0.00000000 </v>
   <v>       0.20000000       0.20000000      -0.00000000 </v>
   <v>       0.30000000       0.20000000      -0.00000000 </v>
   <v>       0.40000000       0.20000000      -0.00000000 </v>
   <v>       0.50000000       0.20000000      -0.00000000 </v>
   <v>      -0.40000000       0.20000000       0.00000000 </v>
   <v>      -0.30000000       0.20000000      -0.00000000 </v>
   <v>      -0.20000000       0.20000000      -0.00000000 </v>
   <v>      -0.10000000       0.20000000       0.00000000 </v>
   <v>      -0.00000000       0.30000000       0.00000000 </v>
   <v>       0.10000000       0.30000000      -0.00000000 </v>
   <v>       0.20000000       0.30000000      -0.00000000 </v>
   <v>       0.30000000       0.30000000      -0.00000000 </v>
   <v>       0.40000000       0.30000000      -0.00000000 </v>
   <v>       0.50000000       0.30000000      -0.00000000 </v>
   <v>      -0.40000000       0.30000000       0.00000000 </v>
   <v>      -0.30000000       0.30000000       0.00000000 </v>
   <v>      -0.20000000       0.30000000      -0.00000000 </v>
   <v>      -0.10000000       0.30000000       0.00000000 </v>
   <v>       0.00000000       0.40000000      -0.00000000 </v>
   <v>       0.10000000       0.40000000      -0.00000000 </v>
   <v>       0.20000000       0.40000000      -0.00000000 </v>
   <v>       0.30000000       0.40000000      -0.00000000 </v>
   <v>       0.40000000       0.40000000      -0.00000000 </v>
   <v>       0.50000000       0.40000000      -0.00000000 </v>
   <v>      -0.40000000       0.40000000      -0.00000000 </v>
   <v>      -0.30000000       0.40000000       0.00000000 </v>
   <v>      -0.20000000       0.40000000       0.00000000 </v>
   <v>      -0.10000000       0.40000000      -0.00000000 </v>
   <v>       0.00000000       0.50000000      -0.00000000 </v>
   <v>       0.10000000       0.50000000      -0.00000000 </v>
   <v>       0.20000000       0.50000000       0.00000000 </v>
   <v>       0.30000000       0.50000000      -0.00000000 </v>
   <v>       0.40000000       0.50000000      -0.00000000 </v>
   <v>       0.50000000       0.50000000      -0.00000000 </v>
   <v>      -0.00000000       0.00000000       0.10000000 </v>
   <v>       0.10000000      -0.00000000       0.10000000 </v>
   <v>       0.20000000      -0.00000000       0.10000000 </v>
   <v>       0.30000000       0.00000000       0.10000000 </v>
   <v>       0.40000000      -0.00000000       0.10000000 </v>
   <v>       0.50000000       0.00000000       0.10000000 </v>
   <v>      -0.40000000      -0.00000000       0.10000000 </v>
   <v>      -0.30000000       0.00000000       0.10000000 </v>
   <v>      -0.20000000       0.00000000       0.10000000 </v>
   <v>      -0.10000000      -0.00000000       0.10000000 </v>
   <v>      -0.00000000       0.10000000       0.10000000 </v>
   <v>       0.10000000       0.10000000       0.10000000 </v>
   <v>       0.20000000       0.10000000       0.10000000 </v>
   <v>       0.30000000       0.10000000       0.10000000 </v>
   <v>       0.40000000       0.10000000       0.10000000 </v>
   <v>       0.50000000       0.10000000       0.10000000 </v>
   <v>      -0.40000000       0.10000000       0.10000000 </v>
   <v>      -0.30000000       0.10000000       0.10000000 </v>
   <v>      -0.20000000       0.10000000       0.10000000 </v>
   <v>      -0.10000000       0.10000000       0.10000000 </v>
   <v>      -0.00000000       0.20000000       0.10000000 </v>
   <v>       0.10000000       0.20000000       0.10000000 </v>
   <v>       0.20000000       0.20000000       0.10000000 </v>
   <v>       0.30000000       0.20000000       0.10000000 </v>
   <v>       0.40000000       0.20000000       0.10000000 </v>
   <v>       0.50000000       0.20000000       0.10000000 </v>
   <v>      -0.40000000       0.20000000       0.10000000 </v>
   <v>      -0.30000000       0.20000000       0.10000000 </v>
   <v>      -0.20000000       0.20000000       0.10000000 </v>
   <v>      -0.10000000       0.20000000       0.10000000 </v>
   <v>       0.00000000       0.30000000       0.10000000 </v>
   <v>       0.10000000       0.30000000       0.10000000 </v>
   <v>       0.20000000       0.30000000       0.10000000 </v>
   <v>       0.30000000       0.30000000       0.10000000 </v>
   <v>       0.40000000       0.30000000       0.10000000 </v>
   <v>       0.50000000       0.30000000       0.10000000 </v>
   <v>      -0.40000000       0.30000000       0.10000000 </v>
   <v>      -0.30000000       0.30000000       0.10000000 </v>
   <v>      -0.20000000       0.30000000       0.10000000 </v>
   <v>      -0.10000000       0.30000000       0.10000000 </v>
   <v>      -0.00000000       0.40000000       0.10000000 </v>
   <v>       0.10000000       0.40000000       0.10000000 </v>
   <v>       0.20000000       0.40000000       0.10000000 </v>
   <v>       0.30000000       0.40000000       0.10000000 </v>
   <v>       0.40000000       0.40000000       0.10000000 </v>
   <v>       0.50000000       0.40000000       0.10000000 </v>
   <v>      -0.40000000       0.40000000       0.10000000 </v>
   <v>      -0.30000000       0.40000000       0.10000000 </v>
   <v>      -0.20000000       0.40000000       0.10000000 </v>
   <v>      -0.10000000       0.40000000       0.10000000 </v>
   <v>       0.00000000       0.50000000       0.10000000 </v>
   <v>       0.10000000       0.50000000       0.10000000 </v>
   <v>       0.20000000       0.50000000       0.10000000 </v>
   <v>       0.30000000       0.50000000       0.10000000 </v>
   <v>       0.40000000       0.50000000       0.10000000 </v>
   <v>       0.50000000       0.50000000       0.10000000 </v>
   <v>      -0.40000000       0.50000000       0.10000000 </v>
   <v>      -0.30000000       0.50000000       0.10000000 </v>
   <v>      -0.20000000       0.50000000       0.10000000 </v>
   <v>      -0.10000000       0.50000000       0.10000000 </v>
   <v>      -0.00000000      -0.40000000       0.10000000 </v>
   <v>       0.10000000      -0.40000000       0.10000000 </v>
   <v>       0.20000000      -0.40000000       0.10000000 </v>
   <v>       0.30000000      -0.40000000       0.10000000 </v>
   <v>       0.40000000      -0.40000000       0.10000000 </v>
   <v>       0.50000000      -0.40000000       0.10000000 </v>
   <v>      -0.40000000      -0.40000000       0.10000000 </v>
   <v>      -0.30000000      -0.40000000       0.10000000 </v>
   <v>      -0.20000000      -0.40000000       0.10000000 </v>
   <v>      -0.10000000      -0.40000000       0.10000000 </v>
   <v>       0.00000000      -0.30000000       0.10000000 </v>
   <v>       0.10000000      -0.30000000       0.10000000 </v>
   <v>       0.20000000      -0.30000000       0.10000000 </v>
   <v>       0.30000000      -0.30000000       0.10000000 </v>
   <v>       0.40000000      -0.30000000       0.10000000 </v>
   <v>       0.50000000      -0.30000000       0.10000000 </v>
   <v>      -0.40000000      -0.30000000       0.10000000 </v>
   <v>      -0.30000000      -0.30000000       0.10000000 </v>
   <v>      -0.20000000      -0.30000000       0.10000000 </v>
   <v>      -0.10000000      -0.30000000       0.10000000 </v>
   <v>       0.00000000      -0.20000000       0.10000000 </v>
   <v>       0.10000000      -0.20000000       0.10000000 </v>
   <v>       0.20000000      -0.20000000       0.10000000 </v>
   <v>       0.30000000      -0.20000000       0.10000000 </v>
   <v>       0.40000000      -0.20000000       0.10000000 </v>
   <v>       0.50000000      -0.20000000       0.10000000 </v>
   <v>      -0.40000000      -0.20000000       0.10000000 </v>
   <v>      -0.30000000      -0.20000000       0.10000000 </v>
   <v>      -0.20000000      -0.20000000       0.10000000 </v>
   <v>      -0.10000000      -0.20000000       0.10000000 </v>
   <v>      -0.00000000      -0.10000000       0.10000000 </v>
   <v>       0.10000000      -0.10000000       0.10000000 </v>
   <v>       0.20000000      -0.10000000       0.10000000 </v>
   <v>       0.30000000      -0.10000000       0.10000000 </v>
   <v>       0.40000000      -0.10000000       0.10000000 </v>
   <v>       0.50000000      -0.10000000       0.10000000 </v>
   <v>      -0.40000000      -0.10000000       0.10000000 </v>
   <v>      -0.30000000      -0.10000000       0.10000000 </v>
   <v>      -0.20000000      -0.10000000       0.10000000 </v>
   <v>      -0.10000000      -0.10000000       0.10000000 </v>
   <v>      -0.00000000      -0.00000000       0.20000000 </v>
   <v>       0.10000000       0.00000000       0.20000000 </v>
   <v>       0.20000000      -0.00000000       0.20000000 </v>
   <v>       0.30000000      -0.00000000       0.20000000 </v>
   <v>       0.40000000       0.00000000       0.20000000 </v>
   <v>       0.50000000      -0.00000000       0.20000000 </v>
   <v>      -0.40000000       0.00000000       0.20000000 </v>
   <v>      -0.30000000      -0.00000000       0.20000000 </v>
   <v>      -0.20000000       0.00000000       0.20000000 </v>
   <v>      -0.10000000       0.00000000       0.20000000 </v>
   <v>      -0.00000000       0.10000000       0.20000000 </v>
   <v>       0.10000000       0.10000000       0.20000000 </v>
   <v>       0.20000000       0.10000000       0.20000000 </v>
   <v>       0.30000000       0.10000000       0.20000000 </v>
   <v>       0.40000000       0.10000000       0.20000000 </v>
   <v>       0.50000000       0.10000000       0.20000000 </v>
   <v>      -0.40000000       0.10000000       0.20000000 </v>
   <v>      -0.30000000       0.10000000       0.20000000 </v>
   <v>      -0.20000000       0.10000000       0.20000000 </v>
   <v>      -0.10000000       0.10000000       0.20000000 </v>
   <v>      -0.00000000       0.20000000       0.20000000 </v>
   <v>       0.10000000       0.20000000       0.20000000 </v>
   <v>       0.20000000       0.20000000       0.20000000 </v>
   <v>       0.30000000       0.20000000       0.20000000 </v>
   <v>       0.40000000       0.20000000       0.20000000 </v>
   <v>       0.50000000       0.20000000       0.20000000 </v>
   <v>      -0.40000000       0.20000000       0.20000000 </v>
   <v>      -0.30000000       0.20000000       0.20000000 </v>
   <v>      -0.20000000       0.20000000       0.20000000 </v>
   <v>      -0.10000000       0.20000000       0.20000000 </v>
   <v>      -0.00000000       0.30000000       0.20000000 </v>
   <v>       0.10000000       0.30000000       0.20000000 </v>
   <v>       0.20000000       0.30000000       0.20000000 </v>
   <v>       0.30000000       0.30000000       0.20000000 </v>
   <v>       0.40000000       0.30000000       0.20000000 </v>
   <v>       0.50000000       0.30000000       0.20000000 </v>
   <v>      -0.40000000       0.30000000       0.20000000 </v>
   <v>      -0.30000000       0.30000000       0.20000000 </v>
   <v>      -0.20000000       0.30000000       0.20000000 </v>
   <v>      -0.10000000       0.30000000       0.20000000 </v>
   <v>       0.00000000       0.40000000       0.20000000 </v>
   <v>       0.10000000       0.40000000       0.20000000 </v>
   <v>       0.20000000       0.40000000       0.20000000 </v>
   <v>       0.30000000       0.40000000       0.20000000 </v>
   <v>       0.40000000       0.40000000       0.20000000 </v>
   <v>       0.50000000       0.40000000       0.20000000 </v>
   <v>      -0.40000000       0.40000000       0.20000000 </v>
   <v>      -0.30000000       0.40000000       0.20000000 </v>
   <v>      -0.20000000       0.40000000       0.20000000 </v>
   <v>      -0.10000000       0.40000000       0.20000000 </v>
   <v>      -0.00000000       0.50000000       0.20000000 </v>
   <v>       0.10000000       0.50000000       0.20000000 </v>
   <v>       0.20000000       0.50000000       0.20000000 </v>
   <v>       0.30000000       0.50000000       0.20000000 </v>
   <v>       0.40000000       0.50000000       0.20000000 </v>
   <v>       0.50000000       0.50000000       0.20000000 </v>
   <v>      -0.40000000       0.50000000       0.20000000 </v>
   <v>      -0.30000000       0.50000000       0.20000000 </v>
   <v>      -0.20000000       0.50000000       0.20000000 </v>
   <v>      -0.10000000       0.50000000       0.20000000 </v>
   <v>       0.00000000      -0.40000000       0.20000000 </v>
   <v>       0.10000000      -0.40000000       0.20000000 </v>
   <v>       0.20000000      -0.40000000       0.20000000 </v>
   <v>       0.30000000      -0.40000000       0.20000000 </v>
   <v>       0.40000000      -0.40000000       0.20000000 </v>
   <v>       0.50000000      -0.40000000       0.20000000 </v>
   <v>      -0.40000000      -0.40000000       0.20000000 </v>
   <v>      -0.30000000      -0.40000000       0.20000000 </v>
   <v>      -0.20000000      -0.40000000       0.20000000 </v>
   <v>      -0.10000000      -0.40000000       0.20000000 </v>
   <v>      -0.00000000      -0.30000000       0.20000000 </v>
   <v>       0.10000000      -0.30000000       0.20000000 </v>
   <v>       0.20000000      -0.30000000       0.20000000 </v>
   <v>       0.30000000      -0.30000000       0.20000000 </v>
   <v>       0.40000000      -0.30000000       0.20000000 </v>
   <v>       0.50000000      -0.30000000       0.20000000 </v>
   <v>      -0.40000000      -0.30000000       0.20000000 </v>
   <v>      -0.30000000      -0.30000000       0.20000000 </v>
   <v>      -0.20000000      -0.30000000       0.20000000 </v>
   <v>      -0.10000000      -0.30000000       0.20000000 </v>
   <v>      -0.00000000      -0.20000000       0.20000000 </v>
   <v>       0.10000000      -0.20000000       0.20000000 </v>
   <v>       0.20000000      -0.20000000       0.20000000 </v>
   <v>       0.30000000      -0.20000000       0.20000000 </v>
   <v>       0.40000000      -0.20000000       0.20000000 </v>
   <v>       0.50000000      -0.20000000       0.20000000 </v>
   <v>      -0.40000000      -0.20000000       0.20000000 </v>
   <v>      -0.30000000      -0.20000000       0.20000000 </v>
   <v>      -0.20000000      -0.20000000       0.20000000 </v>
   <v>      -0.10000000      -0.20000000       0.20000000 </v>
   <v>       0.00000000      -0.10000000       0.20000000 </v>
   <v>       0.10000000      -0.10000000       0.20000000 </v>
   <v>       0.20000000      -0.10000000       0.20000000 </v>
   <v>       0.30000000      -0.10000000       0.20000000 </v>
   <v>       0.40000000      -0.10000000       0.20000000 </v>
   <v>       0.50000000      -0.10000000       0.20000000 </v>
   <v>      -0.40000000      -0.10000000       0.20000000 </v>
   <v>      -0.30000000      -0.10000000       0.20000000 </v>
   <v>      -0.20000000      -0.10000000       0.20000000 </v>
   <v>      -0.10000000      -0.10000000       0.20000000 </v>
   <v>      -0.00000000       0.00000000       0.30000000 </v>
   <v>       0.10000000      -0.00000000       0.30000000 </v>
   <v>       0.20000000      -0.00000000       0.30000000 </v>
   <v>       0.30000000      -0.00000000       0.30000000 </v>
   <v>       0.40000000      -0.00000000       0.30000000 </v>
   <v>       0.50000000      -0.00000000       0.30000000 </v>
   <v>      -0.40000000       0.00000000       0.30000000 </v>
   <v>      -0.30000000       0.00000000       0.30000000 </v>
   <v>      -0.20000000      -0.00000000       0.30000000 </v>
   <v>      -0.10000000       0.00000000       0.30000000 </v>
   <v>      -0.00000000       0.10000000       0.30000000 </v>
   <v>       0.10000000       0.10000000       0.30000000 </v>
   <v>       0.20000000       0.10000000       0.30000000 </v>
   <v>       0.30000000       0.10000000       0.30000000 </v>
   <v>       0.40000000       0.10000000       0.30000000 </v>
   <v>       0.50000000       0.10000000       0.30000000 </v>
   <v>      -0.40000000       0.10000000       0.30000000 </v>
   <v>      -0.30000000       0.10000000       0.30000000 </v>
   <v>      -0.20000000       0.10000000       0.30000000 </v>
   <v>      -0.10000000       0.10000000       0.30000000 </v>
   <v>      -0.00000000       0.20000000       0.30000000 </v>
   <v>       0.10000000       0.20000000       0.30000000 </v>
   <v>       0.20000000       0.20000000       0.30000000 </v>
   <v>       0.30000000       0.20000000       0.30000000 </v>
   <v>       0.40000000       0.20000000       0.30000000 </v>
   <v>       0.50000000       0.20000000       0.30000000 </v>
   <v>      -0.40000000       0.20000000       0.30000000 </v>
   <v>      -0.30000000       0.20000000       0.30000000 </v>
   <v>      -0.20000000       0.20000000       0.30000000 </v>
   <v>      -0.10000000       0.20000000       0.30000000 </v>
   <v>      -0.00000000       0.30000000       0.30000000 </v>
   <v>       0.10000000       0.30000000       0.30000000 </v>
   <v>       0.20000000       0.30000000       0.30000000 </v>
   <v>       0.30000000       0.30000000       0.30000000 </v>
   <v>       0.40000000       0.30000000       0.30000000 </v>
   <v>       0.50000000       0.30000000       0.30000000 </v>
   <v>      -0.40000000       0.30000000       0.30000000 </v>
   <v>      -0.30000000       0.30000000       0.30000000 </v>
   <v>      -0.20000000       0.30000000       0.30000000 </v>
   <v>      -0.10000000       0.30000000       0.30000000 </v>
   <v>      -0.00000000       0.40000000       0.30000000 </v>
   <v>       0.10000000       0.40000000       0.30000000 </v>
   <v>       0.20000000       0.40000000       0.30000000 </v>
   <v>       0.30000000       0.40000000       0.30000000 </v>
   <v>       0.40000000       0.40000000       0.30000000 </v>
   <v>       0.50000000       0.40000000       0.30000000 </v>
   <v>      -0.40000000       0.40000000       0.30000000 </v>
   <v>      -0.30000000       0.40000000       0.30000000 </v>
   <v>      -0.20000000       0.40000000       0.30000000 </v>
   <v>      -0.10000000       0.40000000       0.30000000 </v>
   <v>      -0.00000000       0.50000000       0.30000000 </v>
   <v>       0.10000000       0.50000000       0.30000000 </v>
   <v>       0.20000000       0.50000000       0.30000000 </v>
   <v>       0.30000000       0.50000000       0.30000000 </v>
   <v>       0.40000000       0.50000000       0.30000000 </v>
   <v>       0.50000000       0.50000000       0.30000000 </v>
   <v>      -0.40000000       0.50000000       0.30000000 </v>
   <v>      -0.30000000       0.50000000       0.30000000 </v>
   <v>      -0.20000000       0.50000000       0.30000000 </v>
   <v>      -0.10000000       0.50000000       0.30000000 </v>
   <v>       0.00000000      -0.40000000       0.30000000 </v>
   <v>       0.10000000      -0.40000000       0.30000000 </v>
   <v>       0.20000000      -0.40000000       0.30000000 </v>
   <v>       0.30000000      -0.40000000       0.30000000 </v>
   <v>       0.40000000      -0.40000000       0.30000000 </v>
   <v>       0.50000000      -0.40000000       0.30000000 </v>
   <v>      -0.40000000      -0.40000000       0.30000000 </v>
   <v>      -0.30000000      -0.40000000       0.30000000 </v>
   <v>      -0.20000000      -0.40000000       0.30000000 </v>
   <v>      -0.10000000      -0.40000000       0.30000000 </v>
   <v>       0.00000000      -0.30000000       0.30000000 </v>
   <v>       0.10000000      -0.30000000       0.30000000 </v>
   <v>       0.20000000      -0.30000000       0.30000000 </v>
   <v>       0.30000000      -0.30000000       0.30000000 </v>
   <v>       0.40000000      -0.30000000       0.30000000 </v>
   <v>       0.50000000      -0.30000000       0.30000000 </v>
   <v>      -0.40000000      -0.30000000       0.30000000 </v>
   <v>      -0.30000000      -0.30000000       0.30000000 </v>
   <v>      -0.20000000      -0.30000000       0.30000000 </v>
   <v>      -0.10000000      -0.30000000       0.30000000 </v>
   <v>      -0.00000000      -0.20000000       0.30000000 </v>
   <v>       0.10000000      -0.20000000       0.30000000 </v>
   <v>       0.20000000      -0.20000000       0.30000000 </v>
   <v>       0.30000000      -0.20000000       0.30000000 </v>
   <v>       0.40000000      -0.20000000       0.30000000 </v>
   <v>       0.50000000      -0.20000000       0.30000000 </v>
   <v>      -0.40000000      -0.20000000       0.30000000 </v>
   <v>      -0.30000000      -0.20000000       0.30000000 </v>
   <v>      -0.20000000      -0.20000000       0.30000000 </v>
   <v>      -0.10000000      -0.20000000       0.30000000 </v>
   <v>       0.00000000      -0.10000000       0.30000000 </v>
   <v>       0.10000000      -0.10000000       0.30000000 </v>
   <v>       0.20000000      -0.10000000       0.30000000 </v>
   <v>       0.30000000      -0.10000000       0.30000000 </v>
   <v>       0.40000000      -0.10000000       0.30000000 </v>
   <v>       0.50000000      -0.10000000       0.30000000 </v>
   <v>      -0.40000000      -0.10000000       0.30000000 </v>
   <v>      -0.30000000      -0.10000000       0.30000000 </v>
   <v>      -0.20000000      -0.10000000       0.30000000 </v>
   <v>      -0.10000000      -0.10000000       0.30000000 </v>
   <v>      -0.00000000      -0.00000000       0.40000000 </v>
   <v>       0.10000000       0.00000000       0.40000000 </v>
   <v>       0.20000000      -0.00000000       0.40000000 </v>
   <v>       0.30000000      -0.00000000       0.40000000 </v>
   <v>       0.40000000      -0.00000000       0.40000000 </v>
   <v>       0.50000000      -0.00000000       0.40000000 </v>
   <v>      -0.40000000       0.00000000       0.40000000 </v>
   <v>      -0.30000000       0.00000000       0.40000000 </v>
   <v>      -0.20000000       0.00000000       0.40000000 </v>
   <v>      -0.10000000      -0.00000000       0.40000000 </v>
   <v>       0.00000000       0.10000000       0.40000000 </v>
   <v>       0.10000000       0.10000000       0.40000000 </v>
   <v>       0.20000000       0.10000000       0.40000000 </v>
   <v>       0.30000000       0.10000000       0.40000000 </v>
   <v>       0.40000000       0.10000000       0.40000000 </v>
   <v>       0.50000000       0.10000000       0.40000000 </v>
   <v>      -0.40000000       0.10000000       0.40000000 </v>
   <v>      -0.30000000       0.10000000       0.40000000 </v>
   <v>      -0.20000000       0.10000000       0.40000000 </v>
   <v>      -0.10000000       0.10000000       0.40000000 </v>
   <v>      -0.00000000       0.20000000       0.40000000 </v>
   <v>       0.10000000       0.20000000       0.40000000 </v>
   <v>       0.20000000       0.20000000       0.40000000 </v>
   <v>       0.30000000       0.20000000       0.40000000 </v>
   <v>       0.40000000       0.20000000       0.40000000 </v>
   <v>       0.50000000       0.20000000       0.40000000 </v>
   <v>      -0.40000000       0.20000000       0.40000000 </v>
   <v>      -0.30000000       0.20000000       0.40000000 </v>
   <v>      -0.20000000       0.20000000       0.40000000 </v>
   <v>      -0.10000000       0.20000000       0.40000000 </v>
   <v>      -0.00000000       0.30000000       0.40000000 </v>
   <v>       0.10000000       0.30000000       0.40000000 </v>
   <v>       0.20000000       0.30000000       0.40000000 </v>
   <v>       0.30000000       0.30000000       0.40000000 </v>
   <v>       0.40000000       0.30000000       0.40000000 </v>
   <v>       0.50000000       0.30000000       0.40000000 </v>
   <v>      -0.40000000       0.30000000       0.40000000 </v>
   <v>      -0.30000000       0.30000000       0.40000000 </v>
   <v>      -0.20000000       0.30000000       0.40000000 </v>
   <v>      -0.10000000       0.30000000       0.40000000 </v>
   <v>      -0.00000000       0.40000000       0.40000000 </v>
   <v>       0.10000000       0.40000000       0.40000000 </v>
   <v>       0.20000000       0.40000000       0.40000000 </v>
   <v>       0.30000000       0.40000000       0.40000000 </v>
   <v>       0.40000000       0.40000000       0.40000000 </v>
   <v>       0.50000000       0.40000000       0.40000000 </v>
   <v>      -0.40000000       0.40000000       0.40000000 </v>
   <v>      -0.30000000       0.40000000       0.40000000 </v>
   <v>      -0.20000000       0.40000000       0.40000000 </v>
   <v>      -0.10000000       0.40000000       0.40000000 </v>
   <v>      -0.00000000       0.50000000       0.40000000 </v>
   <v>       0.10000000       0.50000000       0.40000000 </v>
   <v>       0.20000000       0.50000000       0.40000000 </v>
   <v>       0.30000000       0.50000000       0.40000000 </v>
   <v>       0.40000000       0.50000000       0.40000000 </v>
   <v>       0.50000000       0.50000000       0.40000000 </v>
   <v>      -0.40000000       0.50000000       0.40000000 </v>
   <v>      -0.30000000       0.50000000       0.40000000 </v>
   <v>      -0.20000000       0.50000000       0.40000000 </v>
   <v>      -0.10000000       0.50000000       0.40000000 </v>
   <v>      -0.00000000      -0.40000000       0.40000000 </v>
   <v>       0.10000000      -0.40000000       0.40000000 </v>
   <v>       0.20000000      -0.40000000       0.40000000 </v>
   <v>       0.30000000      -0.40000000       0.40000000 </v>
   <v>       0.40000000      -0.40000000       0.40000000 </v>
   <v>       0.50000000      -0.40000000       0.40000000 </v>
   <v>      -0.40000000      -0.40000000       0.40000000 </v>
   <v>      -0.30000000      -0.40000000       0.40000000 </v>
   <v>      -0.20000000      -0.40000000       0.40000000 </v>
   <v>      -0.10000000      -0.40000000       0.40000000 </v>
   <v>       0.00000000      -0.30000000       0.40000000 </v>
   <v>       0.10000000      -0.30000000       0.40000000 </v>
   <v>       0.20000000      -0.30000000       0.40000000 </v>
   <v>       0.30000000      -0.30000000       0.40000000 </v>
   <v>       0.40000000      -0.30000000       0.40000000 </v>
   <v>       0.50000000      -0.30000000       0.40000000 </v>
   <v>      -0.40000000      -0.30000000       0.40000000 </v>
   <v>      -0.30000000      -0.30000000       0.40000000 </v>
   <v>      -0.20000000      -0.30000000       0.40000000 </v>
   <v>      -0.10000000      -0.30000000       0.40000000 </v>
   <v>       0.00000000      -0.20000000       0.40000000 </v>
   <v>       0.10000000      -0.20000000       0.40000000 </v>
   <v>       0.20000000      -0.20000000       0.40000000 </v>
   <v>       0.30000000      -0.20000000       0.40000000 </v>
   <v>       0.40000000      -0.20000000       0.40000000 </v>
   <v>       0.50000000      -0.20000000       0.40000000 </v>
   <v>      -0.40000000      -0.20000000       0.40000000 </v>
   <v>      -0.30000000      -0.20000000       0.40000000 </v>
   <v>      -0.20000000      -0.20000000       0.40000000 </v>
   <v>      -0.10000000      -0.20000000       0.40000000 </v>
   <v>      -0.00000000      -0.10000000       0.40000000 </v>
   <v>       0.10000000      -0.10000000       0.40000000 </v>
   <v>       0.20000000      -0.10000000       0.40000000 </v>
   <v>       0.30000000      -0.10000000       0.40000000 </v>
   <v>       0.40000000      -0.10000000       0.40000000 </v>
   <v>       0.50000000      -0.10000000       0.40000000 </v>
   <v>      -0.40000000      -0.10000000       0.40000000 </v>
   <v>      -0.30000000      -0.10000000       0.40000000 </v>
   <v>      -0.20000000      -0.10000000       0.40000000 </v>
   <v>      -0.10000000      -0.10000000       0.40000000 </v>
   <v>      -0.00000000      -0.00000000       0.50000000 </v>
   <v>       0.10000000      -0.00000000       0.50000000 </v>
   <v>       0.20000000       0.00000000       0.50000000 </v>
   <v>       0.30000000      -0.00000000       0.50000000 </v>
   <v>       0.40000000      -0.00000000       0.50000000 </v>
   <v>       0.50000000      -0.00000000       0.50000000 </v>
   <v>      -0.00000000       0.10000000       0.50000000 </v>
   <v>       0.10000000       0.10000000       0.50000000 </v>
   <v>       0.20000000       0.10000000       0.50000000 </v>
   <v>       0.30000000       0.10000000       0.50000000 </v>
   <v>       0.40000000       0.10000000       0.50000000 </v>
   <v>       0.50000000       0.10000000       0.50000000 </v>
   <v>      -0.40000000       0.10000000       0.50000000 </v>
   <v>      -0.30000000       0.10000000       0.50000000 </v>
   <v>      -0.20000000       0.10000000       0.50000000 </v>
   <v>      -0.10000000       0.10000000       0.50000000 </v>
   <v>      -0.00000000       0.20000000       0.50000000 </v>
   <v>       0.10000000       0.20000000       0.50000000 </v>
   <v>       0.20000000       0.20000000       0.50000000 </v>
   <v>       0.30000000       0.20000000       0.50000000 </v>
   <v>       0.40000000       0.20000000       0.50000000 </v>
   <v>       0.50000000       0.20000000       0.50000000 </v>
   <v>      -0.40000000       0.20000000       0.50000000 </v>
   <v>      -0.30000000       0.20000000       0.50000000 </v>
   <v>      -0.20000000       0.20000000       0.50000000 </v>
   <v>      -0.10000000       0.20000000       0.50000000 </v>
   <v>      -0.00000000       0.30000000       0.50000000 </v>
   <v>       0.10000000       0.30000000       0.50000000 </v>
   <v>       0.20000000       0.30000000       0.50000000 </v>
   <v>       0.30000000       0.30000000       0.50000000 </v>
   <v>       0.40000000       0.30000000       0.50000000 </v>
   <v>       0.50000000       0.30000000       0.50000000 </v>
   <v>      -0.40000000       0.30000000       0.50000000 </v>
   <v>      -0.30000000       0.30000000       0.50000000 </v>
   <v>      -0.20000000       0.30000000       0.50000000 </v>
   <v>      -0.10000000       0.30000000       0.50000000 </v>
   <v>      -0.00000000       0.40000000       0.50000000 </v>
   <v>       0.10000000       0.40000000       0.50000000 </v>
   <v>       0.20000000       0.40000000       0.50000000 </v>
   <v>       0.30000000       0.40000000       0.50000000 </v>
   <v>       0.40000000       0.40000000       0.50000000 </v>
   <v>       0.50000000       0.40000000       0.50000000 </v>
   <v>      -0.40000000       0.40000000       0.50000000 </v>
   <v>      -0.30000000       0.40000000       0.50000000 </v>
   <v>      -0.20000000       0.40000000       0.50000000 </v>
   <v>      -0.10000000       0.40000000       0.50000000 </v>
   <v>      -0.00000000       0.50000000       0.50000000 </v>
   <v>       0.10000000       0.50000000       0.50000000 </v>
   <v>       0.20000000       0.50000000       0.50000000 </v>
   <v>       0.30000000       0.50000000       0.50000000 </v>
   <v>       0.40000000       0.50000000       0.50000000 </v>
   <v>       0.50000000       0.50000000       0.50000000 </v>
  </varray>
  <varray name="weights" >
   <v>       0.00100000 </v>
   <v>       0.00200000 </v>
   <v>       0.00200000 </v>
   <v>       0.00200000 </v>
   <v>       0.00200000 </v>
   <v>       0.00100000 </v>
   <v>       0.00200000 </v>
   <v>       0.00200000 </v>
   <v>       0.00200000 </v>
   <v>       0.00200000 </v>
   <v>       0.00200000 </v>
   <v>       0.00200000 </v>
   <v>       0.00200000 </v>
   <v>       0.00200000 </v>
   <v>       0.00200000 </v>
   <v>       0.00200000 </v>
   <v>       0.00200000 </v>
   <v>       0.00200000 </v>
   <v>       0.00200000 </v>
   <v>       0.00200000 </v>
   <v>       0.00200000 </v>
   <v>       0.00200000 </v>
   <v>       0.00200000 </v>
   <v>       0.00200000 </v>
   <v>       0.00200000 </v>
   <v>       0.00200000 </v>
   <v>       0.00200000 </v>
   <v>       0.00200000 </v>
   <v>       0.00200000 </v>
   <v>       0.00200000 </v>
   <v>       0.00200000 </v>
   <v>       0.00200000 </v>
   <v>       0.00200000 </v>
   <v>       0.00200000 </v>
   <v>       0.00200000 </v>
   <v>       0.00200000 </v>
   <v>       0.00200000 </v>
   <v>       0.00200000 </v>
   <v>       0.00200000 </v>
   <v>       0.00200000 </v>
   <v>       0.00200000 </v>
   <v>       0.00200000 </v>
   <v>       0.00200000 </v>
   <v>       0.00200000 </v>
   <v>       0.00200000 </v>
   <v>       0.00200000 </v>
   <v>       0.00100000 </v>
   <v>       0.00200000 </v>
   <v>       0.00200000 </v>
   <v>       0.00200000 </v>
   <v>       0.00200000 </v>
   <v>       0.00100000 </v>
   <v>       0.00200000 </v>
   <v>       0.00200000 </v>
   <v>       0.00200000 </v>
   <v>       0.00200000 </v>
   <v>       0.00200000 </v>
   <v>       0.00200000 </v>
   <v>       0.00200000 </v>
   <v>       0.00200000 </v>
   <v>       0.00200000 </v>
   <v>       0.00200000 </v>
   <v>       0.00200000 </v>
   <v>       0.00200000 </v>
   <v>       0.00200000 </v>
   <v>       0.00200000 </v>
   <v>       0.00200000 </v>
   <v>       0.00200000 </v>
   <v>       0.00200000 </v>
   <v>       0.00200000 </v>
   <v>       0.00200000 </v>
   <v>       0.00200000 </v>
   <v>       0.00200000 </v>
   <v>       0.00200000 </v>
   <v>       0.00200000 </v>
   <v>       0.00200000 </v>
   <v>       0.00200000 </v>
   <v>       0.00200000 </v>
   <v>       0.00200000 </v>
   <v>       0.00200000 </v>
   <v>       0.00200000 </v>
   <v>       0.00200000 </v>
   <v>       0.00200000 </v>
   <v>       0.00200000 </v>
   <v>       0.00200000 </v>
   <v>       0.00200000 </v>
   <v>       0.00200000 </v>
   <v>       0.00200000 </v>
   <v>       0.00200000 </v>
   <v>       0.00200000 </v>
   <v>       0.00200000 </v>
   <v>       0.00200000 </v>
   <v>       0.00200000 </v>
   <v>       0.00200000 </v>
   <v>       0.00200000 </v>
   <v>       0.00200000 </v>
   <v>       0.00200000 </v>
   <v>       0.00200000 </v>
   <v>       0.00200000 </v>
   <v>       0.00200000 </v>
   <v>       0.00200000 </v>
   <v>       0.00200000 </v>
   <v>       0.00200000 </v>
   <v>       0.00200000 </v>
   <v>       0.00200000 </v>
   <v>       0.00200000 </v>
   <v>       0.00200000 </v>
   <v>       0.00200000 </v>
   <v>       0.00200000 </v>
   <v>       0.00200000 </v>
   <v>       0.00200000 </v>
   <v>       0.00200000 </v>
   <v>       0.00200000 </v>
   <v>       0.00200000 </v>
   <v>       0.00200000 </v>
   <v>       0.00200000 </v>
   <v>       0.00200000 </v>
   <v>       0.00200000 </v>
   <v>       0.00200000 </v>
   <v>       0.00200000 </v>
   <v>       0.00200000 </v>
   <v>       0.00200000 </v>
   <v>       0.00200000 </v>
   <v>       0.00200000 </v>
   <v>       0.00200000 </v>
   <v>       0.00200000 </v>
   <v>       0.00200000 </v>
   <v>       0.00200000 </v>
   <v>       0.00200000 </v>
   <v>       0.00200000 </v>
   <v>       0.00200000 </v>
   <v>       0.00200000 </v>
   <v>       0.00200000 </v>
   <v>       0.00200000 </v>
   <v>       0.00200000 </v>
   <v>       0.00200000 </v>
   <v>       0.00200000 </v>
   <v>       0.00200000 </v>
   <v>       0.00200000 </v>
   <v>       0.00200000 </v>
   <v>       0.00200000 </v>
   <v>       0.00200000 </v>
   <v>       0.00200000 </v>
   <v>       0.00200000 </v>
   <v>       0.00200000 </v>
   <v>       0.00200000 </v>
   <v>       0.00200000 </v>
   <v>       0.00200000 </v>
   <v>       0.00200000 </v>
   <v>       0.00200000 </v>
   <v>       0.00200000 </v>
   <v>       0.00200000 </v>
   <v>       0.00200000 </v>
   <v>       0.00200000 </v>
   <v>       0.00200000 </v>
   <v>       0.00200000 </v>
   <v>       0.00200000 </v>
   <v>       0.00200000 </v>
   <v>       0.00200000 </v>
   <v>       0.00200000 </v>
   <v>       0.00200000 </v>
   <v>       0.00200000 </v>
   <v>       0.00200000 </v>
   <v>       0.00200000 </v>
   <v>       0.00200000 </v>
   <v>       0.00200000 </v>
   <v>       0.00200000 </v>
   <v>       0.00200000 </v>
   <v>       0.00200000 </v>
   <v>       0.00200000 </v>
   <v>       0.00200000 </v>
   <v>       0.00200000 </v>
   <v>       0.00200000 </v>
   <v>       0.00200000 </v>
   <v>       0.00200000 </v>
   <v>       0.00200000 </v>
   <v>       0.00200000 </v>
   <v>       0.00200000 </v>
   <v>       0.00200000 </v>
   <v>       0.00200000 </v>
   <v>       0.00200000 </v>
   <v>       0.00200000 </v>
   <v>       0.00200000 </v>
   <v>       0.00200000 </v>
   <v>       0.00200000 </v>
   <v>       0.00200000 </v>
   <v>       0.00200000 </v>
   <v>       0.00200000 </v>
   <v>       0.00200000 </v>
   <v>       0.00200000 </v>
   <v>       0.00200000 </v>
   <v>       0.00200000 </v>
   <v>       0.00200000 </v>
   <v>       0.00200000 </v>
   <v>       0.00200000 </v>
   <v>       0.00200000 </v>
   <v>       0.00200000 </v>
   <v>       0.00200000 </v>
   <v>       0.00200000 </v>
   <v>       0.00200000 </v>
   <v>       0.00200000 </v>
   <v>       0.00200000 </v>
   <v>       0.00200000 </v>
   <v>       0.00200000 </v>
   <v>       0.00200000 </v>
   <v>       0.00200000 </v>
   <v>       0.00200000 </v>
   <v>       0.00200000 </v>
   <v>       0.00200000 </v>
   <v>       0.00200000 </v>
   <v>       0.00200000 </v>
   <v>       0.00200000 </v>
   <v>       0.00200000 </v>
   <v>       0.00200000 </v>
   <v>       0.00200000 </v>
   <v>       0.00200000 </v>
   <v>       0.00200000 </v>
   <v>       0.00200000 </v>
   <v>       0.00200000 </v>
   <v>       0.00200000 </v>
   <v>       0.00200000 </v>
   <v>       0.00200000 </v>
   <v>       0.00200000 </v>
   <v>       0.00200000 </v>
   <v>       0.00200000 </v>
   <v>       0.00200000 </v>
   <v>       0.00200000 </v>
   <v>       0.00200000 </v>
   <v>       0.00200000 </v>
   <v>       0.00200000 </v>
   <v>       0.00200000 </v>
   <v>       0.00200000 </v>
   <v>       0.00200000 </v>
   <v>       0.00200000 </v>
   <v>       0.00200000 </v>
   <v>       0.00200000 </v>
   <v>       0.00200000 </v>
   <v>       0.00200000 </v>
   <v>       0.00200000 </v>
   <v>       0.00200000 </v>
   <v>       0.00200000 </v>
   <v>       0.00200000 </v>
   <v>       0.00200000 </v>
   <v>       0.00200000 </v>
   <v>       0.00200000 </v>
   <v>       0.00200000 </v>
   <v>       0.00200000 </v>
   <v>       0.00200000 </v>
   <v>       0.00200000 </v>
   <v>       0.00200000 </v>
   <v>       0.00200000 </v>
   <v>       0.00200000 </v>
   <v>       0.00200000 </v>
   <v>       0.00200000 </v>
   <v>       0.00200000 </v>
   <v>       0.00200000 </v>
   <v>       0.00200000 </v>
   <v>       0.00200000 </v>
   <v>       0.00200000 </v>
   <v>       0.00200000 </v>
   <v>       0.00200000 </v>
   <v>       0.00200000 </v>
   <v>       0.00200000 </v>
   <v>       0.00200000 </v>
   <v>       0.00200000 </v>
   <v>       0.00200000 </v>
   <v>       0.00200000 </v>
   <v>       0.00200000 </v>
   <v>       0.00200000 </v>
   <v>       0.00200000 </v>
   <v>       0.00200000 </v>
   <v>       0.00200000 </v>
   <v>       0.00200000 </v>
   <v>       0.00200000 </v>
   <v>       0.00200000 </v>
   <v>       0.00200000 </v>
   <v>       0.00200000 </v>
   <v>       0.00200000 </v>
   <v>       0.00200000 </v>
   <v>       0.00200000 </v>
   <v>       0.00200000 </v>
   <v>       0.00200000 </v>
   <v>       0.00200000 </v>
   <v>       0.00200000 </v>
   <v>       0.00200000 </v>
   <v>       0.00200000 </v>
   <v>       0.00200000 </v>
   <v>       0.00200000 </v>
   <v>       0.00200000 </v>
   <v>       0.00200000 </v>
   <v>       0.00200000 </v>
   <v>       0.00200000 </v>
   <v>       0.00200000 </v>
   <v>       0.00200000 </v>
   <v>       0.00200000 </v>
   <v>       0.00200000 </v>
   <v>       0.00200000 </v>
   <v>       0.00200000 </v>
   <v>       0.00200000 </v>
   <v>       0.00200000 </v>
   <v>       0.00200000 </v>
   <v>       0.00200000 </v>
   <v>       0.00200000 </v>
   <v>       0.00200000 </v>
   <v>       0.00200000 </v>
   <v>       0.00200000 </v>
   <v>       0.00200000 </v>
   <v>       0.00200000 </v>
   <v>       0.00200000 </v>
   <v>       0.00200000 </v>
   <v>       0.00200000 </v>
   <v>       0.00200000 </v>
   <v>       0.00200000 </v>
   <v>       0.00200000 </v>
   <v>       0.00200000 </v>
   <v>       0.00200000 </v>
   <v>       0.00200000 </v>
   <v>       0.00200000 </v>
   <v>       0.00200000 </v>
   <v>       0.00200000 </v>
   <v>       0.00200000 </v>
   <v>       0.00200000 </v>
   <v>       0.00200000 </v>
   <v>       0.00200000 </v>
   <v>       0.00200000 </v>
   <v>       0.00200000 </v>
   <v>       0.00200000 </v>
   <v>       0.00200000 </v>
   <v>       0.00200000 </v>
   <v>       0.00200000 </v>
   <v>       0.00200000 </v>
   <v>       0.00200000 </v>
   <v>       0.00200000 </v>
   <v>       0.00200000 </v>
   <v>       0.00200000 </v>
   <v>       0.00200000 </v>
   <v>       0.00200000 </v>
   <v>       0.00200000 </v>
   <v>       0.00200000 </v>
   <v>       0.00200000 </v>
   <v>       0.00200000 </v>
   <v>       0.00200000 </v>
   <v>       0.00200000 </v>
   <v>       0.00200000 </v>
   <v>       0.00200000 </v>
   <v>       0.00200000 </v>
   <v>       0.00200000 </v>
   <v>       0.00200000 </v>
   <v>       0.00200000 </v>
   <v>       0.00200000 </v>
   <v>       0.00200000 </v>
   <v>       0.00200000 </v>
   <v>       0.00200000 </v>
   <v>       0.00200000 </v>
   <v>       0.00200000 </v>
   <v>       0.00200000 </v>
   <v>       0.00200000 </v>
   <v>       0.00200000 </v>
   <v>       0.00200000 </v>
   <v>       0.00200000 </v>
   <v>       0.00200000 </v>
   <v>       0.00200000 </v>
   <v>       0.00200000 </v>
   <v>       0.00200000 </v>
   <v>       0.00200000 </v>
   <v>       0.00200000 </v>
   <v>       0.00200000 </v>
   <v>       0.00200000 </v>
   <v>       0.00200000 </v>
   <v>       0.00200000 </v>
   <v>       0.00200000 </v>
   <v>       0.00200000 </v>
   <v>       0.00200000 </v>
   <v>       0.00200000 </v>
   <v>       0.00200000 </v>
   <v>       0.00200000 </v>
   <v>       0.00200000 </v>
   <v>       0.00200000 </v>
   <v>       0.00200000 </v>
   <v>       0.00200000 </v>
   <v>       0.00200000 </v>
   <v>       0.00200000 </v>
   <v>       0.00200000 </v>
   <v>       0.00200000 </v>
   <v>       0.00200000 </v>
   <v>       0.00200000 </v>
   <v>       0.00200000 </v>
   <v>       0.00200000 </v>
   <v>       0.00200000 </v>
   <v>       0.00200000 </v>
   <v>       0.00200000 </v>
   <v>       0.00200000 </v>
   <v>       0.00200000 </v>
   <v>       0.00200000 </v>
   <v>       0.00200000 </v>
   <v>       0.00200000 </v>
   <v>       0.00200000 </v>
   <v>       0.00200000 </v>
   <v>       0.00200000 </v>
   <v>       0.00200000 </v>
   <v>       0.00200000 </v>
   <v>       0.00200000 </v>
   <v>       0.00200000 </v>
   <v>       0.00200000 </v>
   <v>       0.00200000 </v>
   <v>       0.00200000 </v>
   <v>       0.00200000 </v>
   <v>       0.00200000 </v>
   <v>       0.00200000 </v>
   <v>       0.00200000 </v>
   <v>       0.00200000 </v>
   <v>       0.00200000 </v>
   <v>       0.00200000 </v>
   <v>       0.00200000 </v>
   <v>       0.00200000 </v>
   <v>       0.00200000 </v>
   <v>       0.00200000 </v>
   <v>       0.00200000 </v>
   <v>       0.00200000 </v>
   <v>       0.00200000 </v>
   <v>       0.00200000 </v>
   <v>       0.00200000 </v>
   <v>       0.00200000 </v>
   <v>       0.00200000 </v>
   <v>       0.00200000 </v>
   <v>       0.00200000 </v>
   <v>       0.00200000 </v>
   <v>       0.00200000 </v>
   <v>       0.00200000 </v>
   <v>       0.00200000 </v>
   <v>       0.00200000 </v>
   <v>       0.00200000 </v>
   <v>       0.00200000 </v>
   <v>       0.00200000 </v>
   <v>       0.00200000 </v>
   <v>       0.00200000 </v>
   <v>       0.00200000 </v>
   <v>       0.00200000 </v>
   <v>       0.00200000 </v>
   <v>       0.00200000 </v>
   <v>       0.00200000 </v>
   <v>       0.00200000 </v>
   <v>       0.00200000 </v>
   <v>       0.00200000 </v>
   <v>       0.00200000 </v>
   <v>       0.00200000 </v>
   <v>       0.00200000 </v>
   <v>       0.00200000 </v>
   <v>       0.00200000 </v>
   <v>       0.00200000 </v>
   <v>       0.00200000 </v>
   <v>       0.00200000 </v>
   <v>       0.00100000 </v>
   <v>       0.00200000 </v>
   <v>       0.00200000 </v>
   <v>       0.00200000 </v>
   <v>       0.00200000 </v>
   <v>       0.00100000 </v>
   <v>       0.00200000 </v>
   <v>       0.00200000 </v>
   <v>       0.00200000 </v>
   <v>       0.00200000 </v>
   <v>       0.00200000 </v>
   <v>       0.00200000 </v>
   <v>       0.00200000 </v>
   <v>       0.00200000 </v>
   <v>       0.00200000 </v>
   <v>       0.00200000 </v>
   <v>       0.00200000 </v>
   <v>       0.00200000 </v>
   <v>       0.00200000 </v>
   <v>       0.00200000 </v>
   <v>       0.00200000 </v>
   <v>       0.00200000 </v>
   <v>       0.00200000 </v>
   <v>       0.00200000 </v>
   <v>       0.00200000 </v>
   <v>       0.00200000 </v>
   <v>       0.00200000 </v>
   <v>       0.00200000 </v>
   <v>       0.00200000 </v>
   <v>       0.00200000 </v>
   <v>       0.00200000 </v>
   <v>       0.00200000 </v>
   <v>       0.00200000 </v>
   <v>       0.00200000 </v>
   <v>       0.00200000 </v>
   <v>       0.00200000 </v>
   <v>       0.00200000 </v>
   <v>       0.00200000 </v>
   <v>       0.00200000 </v>
   <v>       0.00200000 </v>
   <v>       0.00200000 </v>
   <v>       0.00200000 </v>
   <v>       0.00200000 </v>
   <v>       0.00200000 </v>
   <v>       0.00200000 </v>
   <v>       0.00200000 </v>
   <v>       0.00100000 </v>
   <v>       0.00200000 </v>
   <v>       0.00200000 </v>
   <v>       0.00200000 </v>
   <v>       0.00200000 </v>
   <v>       0.00100000 </v>
  </varray>
 </kpoints>
 <parameters>
  <separator name="general" >
   <i type="string" name="SYSTEM">unknown system</i>
   <i type="logical" name="LCOMPAT"> F  </i>
  </separator>
  <separator name="electronic" >
   <i type="string" name="PREC">accura</i>
   <i name="ENMAX">    520.00000000</i>
   <i name="ENAUG">    503.85200000</i>
   <i name="EDIFF">      0.00000001</i>
   <i type="int" name="IALGO">    38</i>
   <i type="int" name="IWAVPR">    11</i>
   <i type="int" name="NBANDS">    32</i>
   <i name="NELECT">     32.00000000</i>
   <i type="int" name="TURBO">     0</i>
   <i type="int" name="IRESTART">     0</i>
   <i type="int" name="NREBOOT">     0</i>
   <i type="int" name="NMIN">     0</i>
   <i name="EREF">      0.00000000</i>
   <separator name="electronic smearing" >
    <i type="int" name="ISMEAR">     0</i>
    <i name="SIGMA">      0.01000000</i>
    <i name="KSPACING">      0.50000000</i>
    <i type="logical" name="KGAMMA"> T  </i>
   </separator>
   <separator name="electronic projectors" >
    <i type="logical" name="LREAL"> F  </i>
    <v name="ROPT">      0.00000000      0.00000000      0.00000000</v>
    <i type="int" name="LMAXPAW">  -100</i>
    <i type="int" name="LMAXMIX">     2</i>
    <i type="logical" name="NLSPLINE"> F  </i>
   </separator>
   <separator name="electronic startup" >
    <i type="int" name="ISTART">     0</i>
    <i type="int" name="ICHARG">     2</i>
    <i type="int" name="INIWAV">     1</i>
   </separator>
   <separator name="electronic spin" >
    <i type="int" name="ISPIN">     1</i>
    <i type="logical" name="LNONCOLLINEAR"> F  </i>
    <v name="MAGMOM">      1.00000000      1.00000000      1.00000000      1.00000000</v>
    <i name="NUPDOWN">     -1.00000000</i>
    <i type="logical" name="LSORBIT"> F  </i>
    <v name="SAXIS">      0.00000000      0.00000000      1.00000000</v>
    <i type="logical" name="LSPIRAL"> F  </i>
    <v name="QSPIRAL">      0.00000000      0.00000000      0.00000000</v>
    <i type="logical" name="LZEROZ"> F  </i>
   </separator>
   <separator name="electronic exchange-correlation" >
    <i type="logical" name="LASPH"> F  </i>
    <i type="logical" name="LMETAGGA"> F  </i>
   </separator>
   <separator name="electronic convergence" >
    <i type="int" name="NELM">   100</i>
    <i type="int" name="NELMDL">    -5</i>
    <i type="int" name="NELMIN">     2</i>
    <i name="ENINI">    520.00000000</i>
    <separator name="electronic convergence detail" >
     <i type="logical" name="LDIAG"> T  </i>
     <i type="logical" name="LSUBROT"> F  </i>
     <i name="WEIMIN">      0.00100000</i>
     <i name="EBREAK">      0.00000000</i>
     <i name="DEPER">      0.30000000</i>
     <i type="int" name="NRMM">     4</i>
     <i name="TIME">      0.40000000</i>
    </separator>
   </separator>
   <separator name="electronic mixer" >
    <i name="AMIX">      0.40000000</i>
    <i name="BMIX">      1.00000000</i>
    <i name="AMIN">      0.10000000</i>
    <i name="AMIX_MAG">      1.60000000</i>
    <i name="BMIX_MAG">      1.00000000</i>
    <separator name="electronic mixer details" >
     <i type="int" name="IMIX">     4</i>
     <i type="logical" name="MIXFIRST"> F  </i>
     <i type="int" name="MAXMIX">   -45</i>
     <i name="WC">    100.00000000</i>
     <i type="int" name="INIMIX">     1</i>
     <i type="int" name="MIXPRE">     1</i>
     <i type="int" name="MREMOVE">     5</i>
    </separator>
   </separator>
   <separator name="electronic dipolcorrection" >
    <i type="logical" name="LDIPOL"> F  </i>
    <i type="logical" name="LMONO"> F  </i>
    <i type="int" name="IDIPOL">     0</i>
    <i name="EPSILON">      1.00000000</i>
    <v name="DIPOL">   -100.00000000   -100.00000000   -100.00000000</v>
    <i name="EFIELD">      0.00000000</i>
   </separator>
  </separator>
  <separator name="grids" >
   <i type="int" name="NGX">    48</i>
   <i type="int" name="NGY">    48</i>
   <i type="int" name="NGZ">    48</i>
   <i type="int" name="NGXF">    96</i>
   <i type="int" name="NGYF">    96</i>
   <i type="int" name="NGZF">    96</i>
   <i type="logical" name="ADDGRID"> F  </i>
  </separator>
  <separator name="ionic" >
   <i type="int" name="NSW">     1</i>
   <i type="int" name="IBRION">     8</i>
   <i type="int" name="MDALGO">     0</i>
   <i type="int" name="ISIF">     2</i>
   <i name="PSTRESS">      0.00000000</i>
   <i name="EDIFFG">      0.00000010</i>
   <i type="int" name="NFREE">     0</i>
   <i name="POTIM">      0.50000000</i>
   <i name="SMASS">     -3.00000000</i>
   <i name="SCALEE">      1.00000000</i>
  </separator>
  <separator name="ionic md" >
   <i name="TEBEG">      0.00010000</i>
   <i name="TEEND">      0.00010000</i>
   <i type="int" name="NBLOCK">     1</i>
   <i type="int" name="KBLOCK">     1</i>
   <i type="int" name="NPACO">   256</i>
   <i name="APACO">     16.00000000</i>
  </separator>
  <separator name="symmetry" >
   <i type="int" name="ISYM">     2</i>
   <i name="SYMPREC">      0.00000001</i>
  </separator>
  <separator name="dos" >
   <i type="int" name="LORBIT">     0</i>
   <v name="RWIGS">     -1.00000000     -1.00000000     -1.00000000</v>
   <i type="int" name="NEDOS">   301</i>
   <i name="EMIN">     10.00000000</i>
   <i name="EMAX">    -10.00000000</i>
   <i name="EFERMI">      0.00000000</i>
  </separator>
  <separator name="writing" >
   <i type="int" name="NWRITE">     2</i>
   <i type="logical" name="LWAVE"> F  </i>
   <i type="logical" name="LDOWNSAMPLE"> F  </i>
   <i type="logical" name="LCHARG"> T  </i>
   <i type="logical" name="LPARD"> F  </i>
   <i type="logical" name="LVTOT"> F  </i>
   <i type="logical" name="LVHAR"> F  </i>
   <i type="logical" name="LELF"> F  </i>
   <i type="logical" name="LOPTICS"> F  </i>
   <v name="STM">      0.00000000      0.00000000      0.00000000      0.00000000      0.00000000      0.00000000      0.00000000</v>
  </separator>
  <separator name="performance" >
   <i type="int" name="NPAR">    16</i>
   <i type="int" name="NSIM">     4</i>
   <i type="int" name="NBLK">    -1</i>
   <i type="logical" name="LPLANE"> T  </i>
   <i type="logical" name="LSCALAPACK"> T  </i>
   <i type="logical" name="LSCAAWARE"> F  </i>
   <i type="logical" name="LSCALU"> F  </i>
   <i type="logical" name="LASYNC"> F  </i>
   <i type="logical" name="LORBITALREAL"> F  </i>
  </separator>
  <separator name="miscellaneous" >
   <i type="int" name="IDIOT">     3</i>
   <i type="int" name="ISPECIAL">     0</i>
   <i type="logical" name="LMUSIC"> F  </i>
   <v name="POMASS">     39.09800000     85.46800000     79.90400000</v>
   <v name="DARWINR">      0.00000000      0.00000000      0.00000000</v>
   <v name="DARWINV">      1.00000000      1.00000000      1.00000000</v>
   <i type="logical" name="LCORR"> T  </i>
  </separator>
  <i type="logical" name="GGA_COMPAT"> T  </i>
  <i type="logical" name="LBERRY"> F  </i>
  <i type="int" name="ICORELEVEL">     0</i>
  <i type="logical" name="LDAU"> F  </i>
  <i type="int" name="I_CONSTRAINED_M">     0</i>
  <separator name="electronic exchange-correlation" >
   <i type="string" name="GGA">--</i>
   <i type="int" name="VOSKOWN">     0</i>
   <i type="logical" name="LHFCALC"> F  </i>
   <i type="string" name="PRECFOCK"></i>
   <i type="logical" name="LSYMGRAD"> F  </i>
   <i type="logical" name="LHFONE"> F  </i>
   <i type="logical" name="LRHFCALC"> F  </i>
   <i type="logical" name="LTHOMAS"> F  </i>
   <i type="logical" name="LMODELHF"> F  </i>
   <i name="ENCUT4O">     -1.00000000</i>
   <i type="int" name="EXXOEP">     0</i>
   <i type="int" name="FOURORBIT">     0</i>
   <i name="AEXX">      0.00000000</i>
   <i name="HFALPHA">      0.00000000</i>
   <i name="MCALPHA">      0.00000000</i>
   <i name="ALDAX">      1.00000000</i>
   <i name="AGGAX">      1.00000000</i>
   <i name="ALDAC">      1.00000000</i>
   <i name="AGGAC">      1.00000000</i>
   <i type="int" name="NKREDX">     1</i>
   <i type="int" name="NKREDY">     1</i>
   <i type="int" name="NKREDZ">     1</i>
   <i type="logical" name="SHIFTRED"> F  </i>
   <i type="logical" name="ODDONLY"> F  </i>
   <i type="logical" name="EVENONLY"> F  </i>
   <i type="int" name="LMAXFOCK">     0</i>
   <i type="int" name="NMAXFOCKAE">     0</i>
   <i type="logical" name="LFOCKAEDFT"> F  </i>
   <i name="HFSCREEN">      0.00000000</i>
   <i name="HFSCREENC">      0.00000000</i>
   <i type="int" name="NBANDSGWLOW">     0</i>
  </separator>
  <separator name="vdW DFT" >
   <i type="logical" name="LUSE_VDW"> F  </i>
   <i name="Zab_VDW">     -0.84910000</i>
   <i name="PARAM1">      0.12340000</i>
   <i name="PARAM2">      1.00000000</i>
   <i name="PARAM3">      0.00000000</i>
  </separator>
  <separator name="model GW" >
   <i type="int" name="MODEL_GW">     0</i>
   <i name="MODEL_EPS0">     20.95134980</i>
   <i name="MODEL_ALPHA">      1.00000000</i>
  </separator>
  <separator name="linear response parameters" >
   <i type="logical" name="LEPSILON"> T  </i>
   <i type="logical" name="LRPA"> F  </i>
   <i type="logical" name="LNABLA"> F  </i>
   <i type="logical" name="LVEL"> F  </i>
   <i type="int" name="KINTER">     0</i>
   <i name="CSHIFT">      0.10000000</i>
   <i name="OMEGAMAX">     -1.00000000</i>
   <i name="DEG_THRESHOLD">      0.00200000</i>
   <i name="RTIME">     -0.10000000</i>
   <i name="WPLASMAI">      0.00000000</i>
   <v name="DFIELD">      0.00000000      0.00000000      0.00000000</v>
   <v name="WPLASMA">      0.00000000      0.00000000      0.00000000      0.00000000      0.00000000      0.00000000      0.00000000      0.00000000      0.00000000</v>
  </separator>
  <separator name="orbital magnetization" >
   <i type="logical" name="NUCIND"> F  </i>
   <v name="MAGPOS">      0.00000000      0.00000000      0.00000000</v>
   <i type="logical" name="LNICSALL"> T  </i>
   <i type="logical" name="ORBITALMAG"> F  </i>
   <i type="logical" name="LMAGBLOCH"> F  </i>
   <i type="logical" name="LCHIMAG"> F  </i>
   <i type="logical" name="LGAUGE"> T  </i>
   <i type="int" name="MAGATOM">     0</i>
   <v name="MAGDIPOL">      0.00000000      0.00000000      0.00000000</v>
   <v name="AVECCONST">      0.00000000      0.00000000      0.00000000</v>
  </separator>
  <separator name="response functions" >
   <i type="logical" name="LADDER"> F  </i>
   <i type="logical" name="LRPAFORCE"> F  </i>
   <i type="logical" name="LFXC"> F  </i>
   <i type="logical" name="LHARTREE"> T  </i>
   <i type="int" name="IBSE">     0</i>
   <v type="int" name="KPOINT">    -1     0     0     0</v>
   <i type="logical" name="LTCTE"> F  </i>
   <i type="logical" name="LTETE"> F  </i>
   <i type="logical" name="LTRIPLET"> F  </i>
   <i type="logical" name="LFXCEPS"> F  </i>
   <i type="logical" name="LFXHEG"> F  </i>
   <i type="int" name="NATURALO">     2</i>
   <i type="logical" name="L2ORDER"> F  </i>
   <i type="logical" name="LMP2LT"> F  </i>
   <i type="logical" name="LUSEW"> F  </i>
   <i name="ENCUTGW">     -2.00000000</i>
   <i name="ENCUTGWSOFT">     -2.00000000</i>
   <i name="ENCUTLF">     -1.00000000</i>
   <i type="int" name="LMAXMP2">    -1</i>
   <i name="SCISSOR">      0.00000000</i>
   <i type="int" name="NOMEGA">     0</i>
   <i type="int" name="NOMEGAR">     0</i>
   <i type="int" name="NBANDSGW">    -1</i>
   <i type="int" name="NBANDSO">    -1</i>
   <i type="int" name="NBANDSV">    -1</i>
   <i type="int" name="NELM">   100</i>
   <i type="int" name="NELMHF">     1</i>
   <i type="int" name="DIM">     3</i>
   <i type="int" name="ANTIRES">     0</i>
   <i name="OMEGAMAX">    -30.00000000</i>
   <i name="OMEGAMIN">    -30.00000000</i>
   <i name="OMEGATL">   -200.00000000</i>
   <i type="int" name="OMEGAGRID">   140</i>
   <i name="CSHIFT">     -0.10000000</i>
   <i type="logical" name="SELFENERGY"> F  </i>
   <i type="logical" name="LSPECTRAL"> F  </i>
   <i type="logical" name="LSPECTRALGW"> F  </i>
   <i type="logical" name="LSINGLES"> F  </i>
   <i type="logical" name="LFERMIGW"> F  </i>
   <i type="logical" name="ODDONLYGW"> F  </i>
   <i type="logical" name="EVENONLYGW"> F  </i>
   <i type="int" name="NKREDLFX">     1</i>
   <i type="int" name="NKREDLFY">     1</i>
   <i type="int" name="NKREDLFZ">     1</i>
   <i type="int" name="MAXMEM">  2800</i>
   <i type="int" name="TELESCOPE">     0</i>
   <i type="int" name="TAUPAR">     1</i>
   <i type="int" name="OMEGAPAR">    -1</i>
   <i name="LAMBDA">      1.00000000</i>
  </separator>
  <separator name="External order field" >
   <i name="OFIELD_KAPPA">      0.00000000</i>
   <v name="OFIELD_K">      0.00000000      0.00000000      0.00000000</v>
   <i name="OFIELD_Q6_NEAR">      0.00000000</i>
   <i name="OFIELD_Q6_FAR">      0.00000000</i>
   <i name="OFIELD_A">      0.00000000</i>
  </separator>
 </parameters>
 <atominfo>
  <atoms>       4 </atoms>
  <types>       3 </types>
  <array name="atoms" >
   <dimension dim="1">ion</dimension>
   <field type="string">element</field>
   <field type="int">atomtype</field>
   <set>
    <rc><c>K </c><c>   1</c></rc>
    <rc><c>Rb</c><c>   2</c></rc>
    <rc><c>Br</c><c>   3</c></rc>
    <rc><c>Br</c><c>   3</c></rc>
   </set>
  </array>
  <array name="atomtypes" >
   <dimension dim="1">type</dimension>
   <field type="int">atomspertype</field>
   <field type="string">element</field>
   <field>mass</field>
   <field>valence</field>
   <field type="string">pseudopotential</field>
   <set>
    <rc><c>   1</c><c>K </c><c>     39.09800000</c><c>      9.00000000</c><c>  PAW_PBE K_sv 06Sep2000                </c></rc>
    <rc><c>   1</c><c>Rb</c><c>     85.46800000</c><c>      9.00000000</c><c>  PAW_PBE Rb_sv 06Sep2000               </c></rc>
    <rc><c>   2</c><c>Br</c><c>     79.90400000</c><c>      7.00000000</c><c>  PAW_PBE Br 06Sep2000                  </c></rc>
   </set>
  </array>
 </atominfo>
 <structure name="initialpos" >
  <crystal>
   <varray name="basis" >
    <v>      -4.11810028       0.00000000       4.11810028 </v>
    <v>       0.00000000       4.11810028       4.11810028 </v>
    <v>      -4.11810028       4.11810028       0.00000000 </v>
   </varray>
   <i name="volume">    139.67566530 </i>
   <varray name="rec_basis" >
    <v>      -0.12141521      -0.12141521       0.12141521 </v>
    <v>       0.12141521       0.12141521       0.12141521 </v>
    <v>      -0.12141521       0.12141521      -0.12141521 </v>
   </varray>
  </crystal>
  <varray name="positions" >
   <v>       0.00000000       0.00000000       0.00000000 </v>
   <v>       0.49999996       0.50000004       0.49999996 </v>
   <v>       0.74999998       0.75000013       0.74999998 </v>
   <v>       0.25000002       0.25000010       0.24999994 </v>
  </varray>
 </structure>
 <calculation>
  <scstep>
   <time name="dav">    6.41    6.43</time>
   <time name="total">    6.44    6.47</time>
   <energy>
    <i name="alphaZ">    101.24295631 </i>
    <i name="ewald">  -1643.07646802 </i>
    <i name="hartreedc">   -424.81092303 </i>
    <i name="XCdc">     84.07094964 </i>
    <i name="pawpsdc">   1689.30609229 </i>
    <i name="pawaedc">  -1667.38753661 </i>
    <i name="eentropy">     -0.00004205 </i>
    <i name="bandstr">   -136.04824798 </i>
    <i name="atom">   2174.40360681 </i>
    <i name="e_fr_energy">    177.70038737 </i>
    <i name="e_wo_entrp">    177.70042942 </i>
    <i name="e_0_energy">    177.70040840 </i>
   </energy>
  </scstep>
  <scstep>
   <time name="dav">    8.38    8.43</time>
   <time name="total">    8.38    8.43</time>
   <energy>
    <i name="e_fr_energy">     -1.30403031 </i>
    <i name="e_wo_entrp">     -1.30403031 </i>
    <i name="e_0_energy">     -1.30403031 </i>
   </energy>
  </scstep>
  <scstep>
   <time name="dav">    8.47    9.17</time>
   <time name="total">    8.47    9.17</time>
   <energy>
    <i name="e_fr_energy">    -12.25059118 </i>
    <i name="e_wo_entrp">    -12.25059118 </i>
    <i name="e_0_energy">    -12.25059118 </i>
   </energy>
  </scstep>
  <scstep>
   <time name="dav">    8.89    9.72</time>
   <time name="total">    8.89    9.72</time>
   <energy>
    <i name="e_fr_energy">    -12.51261716 </i>
    <i name="e_wo_entrp">    -12.51261716 </i>
    <i name="e_0_energy">    -12.51261716 </i>
   </energy>
  </scstep>
  <scstep>
   <time name="dav">    8.11    8.32</time>
   <time name="total">    8.39    8.60</time>
   <energy>
    <i name="e_fr_energy">    -12.51626622 </i>
    <i name="e_wo_entrp">    -12.51626622 </i>
    <i name="e_0_energy">    -12.51626622 </i>
   </energy>
  </scstep>
  <scstep>
   <time name="dav">    8.38    8.40</time>
   <time name="total">    8.67    9.06</time>
   <energy>
    <i name="e_fr_energy">    -12.12304598 </i>
    <i name="e_wo_entrp">    -12.12304598 </i>
    <i name="e_0_energy">    -12.12304598 </i>
   </energy>
  </scstep>
  <scstep>
   <time name="dav">    7.89    7.90</time>
   <time name="total">    8.13    8.16</time>
   <energy>
    <i name="e_fr_energy">    -12.05760676 </i>
    <i name="e_wo_entrp">    -12.05760676 </i>
    <i name="e_0_energy">    -12.05760676 </i>
   </energy>
  </scstep>
  <scstep>
   <time name="dav">    8.04    8.06</time>
   <time name="total">    8.29    8.31</time>
   <energy>
    <i name="e_fr_energy">    -12.06339943 </i>
    <i name="e_wo_entrp">    -12.06339943 </i>
    <i name="e_0_energy">    -12.06339943 </i>
   </energy>
  </scstep>
  <scstep>
   <time name="dav">    8.02    8.05</time>
   <time name="total">    8.27    8.30</time>
   <energy>
    <i name="e_fr_energy">    -12.06341241 </i>
    <i name="e_wo_entrp">    -12.06341241 </i>
    <i name="e_0_energy">    -12.06341241 </i>
   </energy>
  </scstep>
  <scstep>
   <time name="dav">    6.41    6.43</time>
   <time name="total">    6.66    6.68</time>
   <energy>
    <i name="e_fr_energy">    -12.06376553 </i>
    <i name="e_wo_entrp">    -12.06376553 </i>
    <i name="e_0_energy">    -12.06376553 </i>
   </energy>
  </scstep>
  <scstep>
   <time name="dav">    8.33    8.37</time>
   <time name="total">    8.58    9.43</time>
   <energy>
    <i name="e_fr_energy">    -12.06376276 </i>
    <i name="e_wo_entrp">    -12.06376276 </i>
    <i name="e_0_energy">    -12.06376276 </i>
   </energy>
  </scstep>
  <scstep>
   <time name="dav">    6.32    6.35</time>
   <time name="total">    6.59    7.29</time>
   <energy>
    <i name="e_fr_energy">    -12.06376395 </i>
    <i name="e_wo_entrp">    -12.06376395 </i>
    <i name="e_0_energy">    -12.06376395 </i>
   </energy>
  </scstep>
  <scstep>
   <time name="dav">    9.44    9.48</time>
   <time name="total">    9.73    9.93</time>
   <energy>
    <i name="e_fr_energy">    -12.06376413 </i>
    <i name="e_wo_entrp">    -12.06376413 </i>
    <i name="e_0_energy">    -12.06376413 </i>
   </energy>
  </scstep>
  <scstep>
   <time name="dav">    6.45    6.47</time>
   <time name="total">    6.70    6.73</time>
   <energy>
    <i name="e_fr_energy">    -12.06376422 </i>
    <i name="e_wo_entrp">    -12.06376422 </i>
    <i name="e_0_energy">    -12.06376422 </i>
   </energy>
  </scstep>
  <scstep>
   <time name="dav">    7.14    7.16</time>
   <time name="total">    7.16    7.18</time>
   <energy>
    <i name="alphaZ">    101.24295631 </i>
    <i name="ewald">  -1643.07646802 </i>
    <i name="hartreedc">   -427.18830068 </i>
    <i name="XCdc">     85.03106037 </i>
    <i name="pawpsdc">   1828.02781096 </i>
    <i name="pawaedc">  -1808.36765843 </i>
    <i name="eentropy">     -0.00000000 </i>
    <i name="bandstr">   -322.13677153 </i>
    <i name="atom">   2174.40360681 </i>
    <i name="e_fr_energy">    -12.06376421 </i>
    <i name="e_wo_entrp">    -12.06376421 </i>
    <i name="e_0_energy">    -12.06376421 </i>
   </energy>
  </scstep>
  <structure>
   <crystal>
    <varray name="basis" >
     <v>      -4.11810028       0.00000000       4.11810028 </v>
     <v>       0.00000000       4.11810028       4.11810028 </v>
     <v>      -4.11810028       4.11810028       0.00000000 </v>
    </varray>
    <i name="volume">    139.67566530 </i>
    <varray name="rec_basis" >
     <v>      -0.12141521      -0.12141521       0.12141521 </v>
     <v>       0.12141521       0.12141521       0.12141521 </v>
     <v>      -0.12141521       0.12141521      -0.12141521 </v>
    </varray>
   </crystal>
   <varray name="positions" >
    <v>       0.00000000       0.00000000       0.00000000 </v>
    <v>       0.49999996       0.50000004       0.49999996 </v>
    <v>       0.74999998       0.75000013       0.74999998 </v>
    <v>       0.25000002       0.25000010       0.24999994 </v>
   </varray>
  </structure>
  <varray name="forces" >
   <v>       0.00000018       0.00000015       0.00000004 </v>
   <v>      -0.00000024       0.00000034       0.00000060 </v>
   <v>      -0.00000005      -0.00000035      -0.00000028 </v>
   <v>       0.00000011      -0.00000014      -0.00000036 </v>
  </varray>
  <varray name="stress" >
   <v>       0.78124535      -0.00004754      -0.00004494 </v>
   <v>      -0.00004755       0.78124667       0.00004628 </v>
   <v>      -0.00004494       0.00004632       0.78124745 </v>
  </varray>
  <energy>
   <i name="e_fr_energy">    -12.06376421 </i>
   <i name="e_wo_entrp">    -12.06376421 </i>
   <i name="e_0_energy">     -0.00000000 </i>
  </energy>
  <scstep>
   <time name="total">    5.56    5.56</time>
   <energy>
    <i name="e_fr_energy">     -0.77783749 </i>
    <i name="e_wo_entrp">     -0.77783749 </i>
    <i name="e_0_energy">     -0.77783749 </i>
   </energy>
  </scstep>
  <scstep>
   <time name="total">    5.90    5.91</time>
   <energy>
    <i name="e_fr_energy">     -0.80453576 </i>
    <i name="e_wo_entrp">     -0.80453576 </i>
    <i name="e_0_energy">     -0.80453576 </i>
   </energy>
  </scstep>
  <scstep>
   <time name="total">    6.03    6.03</time>
   <energy>
    <i name="e_fr_energy">     -0.80997040 </i>
    <i name="e_wo_entrp">     -0.80997040 </i>
    <i name="e_0_energy">     -0.80997040 </i>
   </energy>
  </scstep>
  <scstep>
   <time name="total">    5.87    5.88</time>
   <energy>
    <i name="e_fr_energy">     -0.81083414 </i>
    <i name="e_wo_entrp">     -0.81083414 </i>
    <i name="e_0_energy">     -0.81083414 </i>
   </energy>
  </scstep>
  <scstep>
   <time name="total">    5.94    5.94</time>
   <energy>
    <i name="e_fr_energy">     -0.81095467 </i>
    <i name="e_wo_entrp">     -0.81095467 </i>
    <i name="e_0_energy">     -0.81095467 </i>
   </energy>
  </scstep>
  <scstep>
   <time name="total">    5.84    5.84</time>
   <energy>
    <i name="e_fr_energy">     -0.81097577 </i>
    <i name="e_wo_entrp">     -0.81097577 </i>
    <i name="e_0_energy">     -0.81097577 </i>
   </energy>
  </scstep>
  <scstep>
   <time name="total">    5.77    5.77</time>
   <energy>
    <i name="e_fr_energy">     -0.81097958 </i>
    <i name="e_wo_entrp">     -0.81097958 </i>
    <i name="e_0_energy">     -0.81097958 </i>
   </energy>
  </scstep>
  <scstep>
   <time name="total">    5.72    5.73</time>
   <energy>
    <i name="e_fr_energy">     -0.81098040 </i>
    <i name="e_wo_entrp">     -0.81098040 </i>
    <i name="e_0_energy">     -0.81098040 </i>
   </energy>
  </scstep>
  <scstep>
   <time name="total">    5.80    5.86</time>
   <energy>
    <i name="e_fr_energy">     -0.81098056 </i>
    <i name="e_wo_entrp">     -0.81098056 </i>
    <i name="e_0_energy">     -0.81098056 </i>
   </energy>
  </scstep>
  <scstep>
   <time name="total">    5.88    5.89</time>
   <energy>
    <i name="e_fr_energy">     -0.81098059 </i>
    <i name="e_wo_entrp">     -0.81098059 </i>
    <i name="e_0_energy">     -0.81098059 </i>
   </energy>
  </scstep>
  <scstep>
   <time name="total">    5.54    5.55</time>
   <energy>
    <i name="e_fr_energy">     -0.81098060 </i>
    <i name="e_wo_entrp">     -0.81098060 </i>
    <i name="e_0_energy">     -0.81098060 </i>
   </energy>
  </scstep>
  <scstep>
   <time name="total">    5.63    5.64</time>
   <energy>
    <i name="e_fr_energy">     -0.77784416 </i>
    <i name="e_wo_entrp">     -0.77784416 </i>
    <i name="e_0_energy">     -0.77784416 </i>
   </energy>
  </scstep>
  <scstep>
   <time name="total">    5.65    5.65</time>
   <energy>
    <i name="e_fr_energy">     -0.80454028 </i>
    <i name="e_wo_entrp">     -0.80454028 </i>
    <i name="e_0_energy">     -0.80454028 </i>
   </energy>
  </scstep>
  <scstep>
   <time name="total">    5.92    5.93</time>
   <energy>
    <i name="e_fr_energy">     -0.80997174 </i>
    <i name="e_wo_entrp">     -0.80997174 </i>
    <i name="e_0_energy">     -0.80997174 </i>
   </energy>
  </scstep>
  <scstep>
   <time name="total">    5.95    5.97</time>
   <energy>
    <i name="e_fr_energy">     -0.81083399 </i>
    <i name="e_wo_entrp">     -0.81083399 </i>
    <i name="e_0_energy">     -0.81083399 </i>
   </energy>
  </scstep>
  <scstep>
   <time name="total">    6.04    6.04</time>
   <energy>
    <i name="e_fr_energy">     -0.81095461 </i>
    <i name="e_wo_entrp">     -0.81095461 </i>
    <i name="e_0_energy">     -0.81095461 </i>
   </energy>
  </scstep>
  <scstep>
   <time name="total">    5.92    5.92</time>
   <energy>
    <i name="e_fr_energy">     -0.81097576 </i>
    <i name="e_wo_entrp">     -0.81097576 </i>
    <i name="e_0_energy">     -0.81097576 </i>
   </energy>
  </scstep>
  <scstep>
   <time name="total">    5.87    5.88</time>
   <energy>
    <i name="e_fr_energy">     -0.81097957 </i>
    <i name="e_wo_entrp">     -0.81097957 </i>
    <i name="e_0_energy">     -0.81097957 </i>
   </energy>
  </scstep>
  <scstep>
   <time name="total">    5.84    5.84</time>
   <energy>
    <i name="e_fr_energy">     -0.81098040 </i>
    <i name="e_wo_entrp">     -0.81098040 </i>
    <i name="e_0_energy">     -0.81098040 </i>
   </energy>
  </scstep>
  <scstep>
   <time name="total">    5.75    5.76</time>
   <energy>
    <i name="e_fr_energy">     -0.81098056 </i>
    <i name="e_wo_entrp">     -0.81098056 </i>
    <i name="e_0_energy">     -0.81098056 </i>
   </energy>
  </scstep>
  <scstep>
   <time name="total">    5.65    5.66</time>
   <energy>
    <i name="e_fr_energy">     -0.81098059 </i>
    <i name="e_wo_entrp">     -0.81098059 </i>
    <i name="e_0_energy">     -0.81098059 </i>
   </energy>
  </scstep>
  <scstep>
   <time name="total">    5.58    5.58</time>
   <energy>
    <i name="e_fr_energy">     -0.81098060 </i>
    <i name="e_wo_entrp">     -0.81098060 </i>
    <i name="e_0_energy">     -0.81098060 </i>
   </energy>
  </scstep>
  <scstep>
   <time name="total">    5.64    5.65</time>
   <energy>
    <i name="e_fr_energy">     -0.77783962 </i>
    <i name="e_wo_entrp">     -0.77783962 </i>
    <i name="e_0_energy">     -0.77783962 </i>
   </energy>
  </scstep>
  <scstep>
   <time name="total">    5.66    5.67</time>
   <energy>
    <i name="e_fr_energy">     -0.80453295 </i>
    <i name="e_wo_entrp">     -0.80453295 </i>
    <i name="e_0_energy">     -0.80453295 </i>
   </energy>
  </scstep>
  <scstep>
   <time name="total">    5.96    5.96</time>
   <energy>
    <i name="e_fr_energy">     -0.80997090 </i>
    <i name="e_wo_entrp">     -0.80997090 </i>
    <i name="e_0_energy">     -0.80997090 </i>
   </energy>
  </scstep>
  <scstep>
   <time name="total">    5.98    5.99</time>
   <energy>
    <i name="e_fr_energy">     -0.81083412 </i>
    <i name="e_wo_entrp">     -0.81083412 </i>
    <i name="e_0_energy">     -0.81083412 </i>
   </energy>
  </scstep>
  <scstep>
   <time name="total">    6.06    6.07</time>
   <energy>
    <i name="e_fr_energy">     -0.81095461 </i>
    <i name="e_wo_entrp">     -0.81095461 </i>
    <i name="e_0_energy">     -0.81095461 </i>
   </energy>
  </scstep>
  <scstep>
   <time name="total">    5.94    5.95</time>
   <energy>
    <i name="e_fr_energy">     -0.81097575 </i>
    <i name="e_wo_entrp">     -0.81097575 </i>
    <i name="e_0_energy">     -0.81097575 </i>
   </energy>
  </scstep>
  <scstep>
   <time name="total">    5.88    5.89</time>
   <energy>
    <i name="e_fr_energy">     -0.81097957 </i>
    <i name="e_wo_entrp">     -0.81097957 </i>
    <i name="e_0_energy">     -0.81097957 </i>
   </energy>
  </scstep>
  <scstep>
   <time name="total">    5.81    5.82</time>
   <energy>
    <i name="e_fr_energy">     -0.81098040 </i>
    <i name="e_wo_entrp">     -0.81098040 </i>
    <i name="e_0_energy">     -0.81098040 </i>
   </energy>
  </scstep>
  <scstep>
   <time name="total">    5.74    5.75</time>
   <energy>
    <i name="e_fr_energy">     -0.81098056 </i>
    <i name="e_wo_entrp">     -0.81098056 </i>
    <i name="e_0_energy">     -0.81098056 </i>
   </energy>
  </scstep>
  <scstep>
   <time name="total">    5.68    5.69</time>
   <energy>
    <i name="e_fr_energy">     -0.81098059 </i>
    <i name="e_wo_entrp">     -0.81098059 </i>
    <i name="e_0_energy">     -0.81098059 </i>
   </energy>
  </scstep>
  <scstep>
   <time name="total">    5.55    5.56</time>
   <energy>
    <i name="e_fr_energy">     -0.81098060 </i>
    <i name="e_wo_entrp">     -0.81098060 </i>
    <i name="e_0_energy">     -0.81098060 </i>
   </energy>
  </scstep>
  <varray name="epsilon_rpa" >
   <v>       3.10128937      -0.00000019      -0.00000019 </v>
   <v>      -0.00000012       3.10128879       0.00000015 </v>
   <v>      -0.00000011       0.00000016       3.10128929 </v>
  </varray>
  <kpoints>
   <generation param="Gamma">
    <v type="int" name="divisions">      10       10       10 </v>
    <v name="usershift">      0.00000000       0.00000000       0.00000000 </v>
    <v name="genvec1">      0.10000000       0.00000000       0.00000000 </v>
    <v name="genvec2">      0.00000000       0.10000000      -0.00000000 </v>
    <v name="genvec3">     -0.00000000      -0.00000000       0.10000000 </v>
    <v name="shift">      0.00000000       0.00000000       0.00000000 </v>
   </generation>
   <varray name="kpointlist" >
    <v>       0.00000000       0.00000000       0.00000000 </v>
    <v>       0.10000000       0.00000000      -0.00000000 </v>
    <v>       0.20000000       0.00000000      -0.00000000 </v>
    <v>       0.30000000      -0.00000000      -0.00000000 </v>
    <v>       0.40000000       0.00000000      -0.00000000 </v>
    <v>       0.50000000       0.00000000      -0.00000000 </v>
    <v>       0.00000000       0.10000000      -0.00000000 </v>
    <v>       0.10000000       0.10000000      -0.00000000 </v>
    <v>       0.20000000       0.10000000      -0.00000000 </v>
    <v>       0.30000000       0.10000000      -0.00000000 </v>
    <v>       0.40000000       0.10000000      -0.00000000 </v>
    <v>       0.50000000       0.10000000      -0.00000000 </v>
    <v>      -0.40000000       0.10000000       0.00000000 </v>
    <v>      -0.30000000       0.10000000       0.00000000 </v>
    <v>      -0.20000000       0.10000000       0.00000000 </v>
    <v>      -0.10000000       0.10000000      -0.00000000 </v>
    <v>       0.00000000       0.20000000      -0.00000000 </v>
[...]
       <r>    8.8377    0.0000 </r>
       <r>    9.5010    0.0000 </r>
       <r>   10.2886    0.0000 </r>
       <r>   10.5448    0.0000 </r>
       <r>   10.7215    0.0000 </r>
      </set>
      <set comment="kpoint 502">
       <r>  -29.5906    1.0000 </r>
       <r>  -25.8734    1.0000 </r>
       <r>  -13.5074    1.0000 </r>
       <r>  -13.3803    1.0000 </r>
       <r>  -13.0804    1.0000 </r>
       <r>  -13.0238    1.0000 </r>
       <r>  -12.9264    1.0000 </r>
       <r>  -10.0128    1.0000 </r>
       <r>   -9.9963    1.0000 </r>
       <r>   -9.9509    1.0000 </r>
       <r>   -2.1661    1.0000 </r>
       <r>   -1.9921    1.0000 </r>
       <r>   -1.8641    1.0000 </r>
       <r>   -1.3022    1.0000 </r>
       <r>   -1.2546    1.0000 </r>
       <r>   -1.2029    1.0000 </r>
       <r>    5.2494    0.0000 </r>
       <r>    5.4991    0.0000 </r>
       <r>    6.0890    0.0000 </r>
       <r>    6.2113    0.0000 </r>
       <r>    6.6279    0.0000 </r>
       <r>    7.1682    0.0000 </r>
       <r>    7.2425    0.0000 </r>
       <r>    7.9507    0.0000 </r>
       <r>    7.9816    0.0000 </r>
       <r>    8.2015    0.0000 </r>
       <r>    8.2559    0.0000 </r>
       <r>    8.4717    0.0000 </r>
       <r>   10.2442    0.0000 </r>
       <r>   10.4312    0.0000 </r>
       <r>   10.9365    0.0000 </r>
       <r>   10.9486    0.0000 </r>
      </set>
      <set comment="kpoint 503">
       <r>  -29.5906    1.0000 </r>
       <r>  -25.8735    1.0000 </r>
       <r>  -13.4896    1.0000 </r>
       <r>  -13.3758    1.0000 </r>
       <r>  -13.0791    1.0000 </r>
       <r>  -13.0585    1.0000 </r>
       <r>  -12.9127    1.0000 </r>
       <r>  -10.0111    1.0000 </r>
       <r>  -10.0046    1.0000 </r>
       <r>   -9.9497    1.0000 </r>
       <r>   -1.9256    1.0000 </r>
       <r>   -1.8843    1.0000 </r>
       <r>   -1.7618    1.0000 </r>
       <r>   -1.4635    1.0000 </r>
       <r>   -1.4533    1.0000 </r>
       <r>   -1.4045    1.0000 </r>
       <r>    5.4971    0.0000 </r>
       <r>    5.7814    0.0000 </r>
       <r>    6.2335    0.0000 </r>
       <r>    6.3948    0.0000 </r>
       <r>    6.6850    0.0000 </r>
       <r>    6.9642    0.0000 </r>
       <r>    7.0450    0.0000 </r>
       <r>    7.5284    0.0000 </r>
       <r>    7.8592    0.0000 </r>
       <r>    7.9599    0.0000 </r>
       <r>    8.0176    0.0000 </r>
       <r>    8.1549    0.0000 </r>
       <r>   10.9222    0.0000 </r>
       <r>   11.0139    0.0000 </r>
       <r>   11.3113    0.0000 </r>
       <r>   11.3501    0.0000 </r>
      </set>
      <set comment="kpoint 504">
       <r>  -29.5906    1.0000 </r>
       <r>  -25.8735    1.0000 </r>
       <r>  -13.4885    1.0000 </r>
       <r>  -13.3635    1.0000 </r>
       <r>  -13.0786    1.0000 </r>
       <r>  -13.0786    1.0000 </r>
       <r>  -12.9054    1.0000 </r>
       <r>  -10.0105    1.0000 </r>
       <r>  -10.0105    1.0000 </r>
       <r>   -9.9466    1.0000 </r>
       <r>   -1.7517    1.0000 </r>
       <r>   -1.7172    1.0000 </r>
       <r>   -1.6698    1.0000 </r>
       <r>   -1.6698    1.0000 </r>
       <r>   -1.5641    1.0000 </r>
       <r>   -1.5641    1.0000 </r>
       <r>    5.6914    0.0000 </r>
       <r>    5.8759    0.0000 </r>
       <r>    6.3813    0.0000 </r>
       <r>    6.3813    0.0000 </r>
       <r>    6.7701    0.0000 </r>
       <r>    6.7701    0.0000 </r>
       <r>    7.1200    0.0000 </r>
       <r>    7.1810    0.0000 </r>
       <r>    7.8322    0.0000 </r>
       <r>    7.8322    0.0000 </r>
       <r>    7.9762    0.0000 </r>
       <r>    7.9762    0.0000 </r>
       <r>   11.3270    0.0000 </r>
       <r>   11.3270    0.0000 </r>
       <r>   11.6561    0.0000 </r>
       <r>   11.6561    0.0000 </r>
      </set>
     </set>
    </set>
   </array>
  </eigenvalues>
  <separator name="orbital magnetization" >
   <v name="MAGDIPOLOUT">      0.00000000      0.00000000      0.00000000</v>
  </separator>
  <dos>
   <i name="efermi">     -0.76585128 </i>
   <total>
    <array>
     <dimension dim="1">gridpoints</dimension>
     <dimension dim="2">spin</dimension>
     <field>energy</field>
     <field>total</field>
     <field>integrated</field>
     <set>
      <set comment="spin 1">
       <r>   -31.6640     0.0000     0.0000 </r>
       <r>   -31.5119     0.0000     0.0000 </r>
       <r>   -31.3599     0.0000     0.0000 </r>
       <r>   -31.2079     0.0000     0.0000 </r>
       <r>   -31.0559     0.0000     0.0000 </r>
       <r>   -30.9039     0.0000     0.0000 </r>
       <r>   -30.7518     0.0000     0.0000 </r>
       <r>   -30.5998     0.0000     0.0000 </r>
       <r>   -30.4478     0.0000     0.0000 </r>
       <r>   -30.2958     0.0000     0.0000 </r>
       <r>   -30.1437     0.0000     0.0000 </r>
       <r>   -29.9917     0.0000     0.0000 </r>
       <r>   -29.8397     0.0000     0.0000 </r>
       <r>   -29.6877     0.0000     0.0000 </r>
       <r>   -29.5357    13.1561     2.0000 </r>
       <r>   -29.3836     0.0000     2.0000 </r>
       <r>   -29.2316     0.0000     2.0000 </r>
       <r>   -29.0796     0.0000     2.0000 </r>
       <r>   -28.9276     0.0000     2.0000 </r>
       <r>   -28.7756     0.0000     2.0000 </r>
       <r>   -28.6235     0.0000     2.0000 </r>
       <r>   -28.4715     0.0000     2.0000 </r>
       <r>   -28.3195     0.0000     2.0000 </r>
       <r>   -28.1675     0.0000     2.0000 </r>
       <r>   -28.0155     0.0000     2.0000 </r>
       <r>   -27.8634     0.0000     2.0000 </r>
       <r>   -27.7114     0.0000     2.0000 </r>
       <r>   -27.5594     0.0000     2.0000 </r>
       <r>   -27.4074     0.0000     2.0000 </r>
       <r>   -27.2554     0.0000     2.0000 </r>
       <r>   -27.1033     0.0000     2.0000 </r>
       <r>   -26.9513     0.0000     2.0000 </r>
       <r>   -26.7993     0.0000     2.0000 </r>
       <r>   -26.6473     0.0000     2.0000 </r>
       <r>   -26.4953     0.0000     2.0000 </r>
       <r>   -26.3432     0.0000     2.0000 </r>
       <r>   -26.1912     0.0000     2.0000 </r>
       <r>   -26.0392     0.0000     2.0000 </r>
       <r>   -25.8872     0.3483     2.0529 </r>
       <r>   -25.7352     0.0000     4.0000 </r>
       <r>   -25.5831     0.0000     4.0000 </r>
       <r>   -25.4311     0.0000     4.0000 </r>
       <r>   -25.2791     0.0000     4.0000 </r>
       <r>   -25.1271     0.0000     4.0000 </r>
       <r>   -24.9751     0.0000     4.0000 </r>
       <r>   -24.8230     0.0000     4.0000 </r>
       <r>   -24.6710     0.0000     4.0000 </r>
       <r>   -24.5190     0.0000     4.0000 </r>
       <r>   -24.3670     0.0000     4.0000 </r>
       <r>   -24.2150     0.0000     4.0000 </r>
       <r>   -24.0629     0.0000     4.0000 </r>
       <r>   -23.9109     0.0000     4.0000 </r>
       <r>   -23.7589     0.0000     4.0000 </r>
       <r>   -23.6069     0.0000     4.0000 </r>
       <r>   -23.4549     0.0000     4.0000 </r>
       <r>   -23.3028     0.0000     4.0000 </r>
       <r>   -23.1508     0.0000     4.0000 </r>
       <r>   -22.9988     0.0000     4.0000 </r>
       <r>   -22.8468     0.0000     4.0000 </r>
       <r>   -22.6948     0.0000     4.0000 </r>
       <r>   -22.5427     0.0000     4.0000 </r>
       <r>   -22.3907     0.0000     4.0000 </r>
       <r>   -22.2387     0.0000     4.0000 </r>
       <r>   -22.0867     0.0000     4.0000 </r>
       <r>   -21.9347     0.0000     4.0000 </r>
       <r>   -21.7826     0.0000     4.0000 </r>
       <r>   -21.6306     0.0000     4.0000 </r>
       <r>   -21.4786     0.0000     4.0000 </r>
       <r>   -21.3266     0.0000     4.0000 </r>
       <r>   -21.1746     0.0000     4.0000 </r>
       <r>   -21.0225     0.0000     4.0000 </r>
       <r>   -20.8705     0.0000     4.0000 </r>
       <r>   -20.7185     0.0000     4.0000 </r>
       <r>   -20.5665     0.0000     4.0000 </r>
       <r>   -20.4145     0.0000     4.0000 </r>
       <r>   -20.2624     0.0000     4.0000 </r>
       <r>   -20.1104     0.0000     4.0000 </r>
       <r>   -19.9584     0.0000     4.0000 </r>
       <r>   -19.8064     0.0000     4.0000 </r>
       <r>   -19.6544     0.0000     4.0000 </r>
       <r>   -19.5023     0.0000     4.0000 </r>
       <r>   -19.3503     0.0000     4.0000 </r>
       <r>   -19.1983     0.0000     4.0000 </r>
       <r>   -19.0463     0.0000     4.0000 </r>
       <r>   -18.8943     0.0000     4.0000 </r>
       <r>   -18.7422     0.0000     4.0000 </r>
       <r>   -18.5902     0.0000     4.0000 </r>
       <r>   -18.4382     0.0000     4.0000 </r>
       <r>   -18.2862     0.0000     4.0000 </r>
       <r>   -18.1342     0.0000     4.0000 </r>
       <r>   -17.9821     0.0000     4.0000 </r>
       <r>   -17.8301     0.0000     4.0000 </r>
       <r>   -17.6781     0.0000     4.0000 </r>
       <r>   -17.5261     0.0000     4.0000 </r>
       <r>   -17.3741     0.0000     4.0000 </r>
       <r>   -17.2220     0.0000     4.0000 </r>
       <r>   -17.0700     0.0000     4.0000 </r>
       <r>   -16.9180     0.0000     4.0000 </r>
       <r>   -16.7660     0.0000     4.0000 </r>
       <r>   -16.6140     0.0000     4.0000 </r>
       <r>   -16.4619     0.0000     4.0000 </r>
       <r>   -16.3099     0.0000     4.0000 </r>
       <r>   -16.1579     0.0000     4.0000 </r>
       <r>   -16.0059     0.0000     4.0000 </r>
       <r>   -15.8539     0.0000     4.0000 </r>
       <r>   -15.7018     0.0000     4.0000 </r>
       <r>   -15.5498     0.0000     4.0000 </r>
       <r>   -15.3978     0.0000     4.0000 </r>
       <r>   -15.2458     0.0000     4.0000 </r>
       <r>   -15.0938     0.0000     4.0000 </r>
       <r>   -14.9417     0.0000     4.0000 </r>
       <r>   -14.7897     0.0000     4.0000 </r>
       <r>   -14.6377     0.0000     4.0000 </r>
       <r>   -14.4857     0.0000     4.0000 </r>
       <r>   -14.3337     0.0000     4.0000 </r>
       <r>   -14.1816     0.0000     4.0000 </r>
       <r>   -14.0296     0.0000     4.0000 </r>
       <r>   -13.8776     0.0000     4.0000 </r>
       <r>   -13.7256     0.0000     4.0000 </r>
       <r>   -13.5736     0.5004     4.0761 </r>
       <r>   -13.4215     5.9520     6.2748 </r>
       <r>   -13.2695     3.7131     7.6525 </r>
       <r>   -13.1175     0.1973     8.0000 </r>
       <r>   -12.9655    10.7091    12.3860 </r>
       <r>   -12.8134     0.0395    14.0000 </r>
       <r>   -12.6614     0.0000    14.0000 </r>
       <r>   -12.5094     0.0000    14.0000 </r>
       <r>   -12.3574     0.0000    14.0000 </r>
       <r>   -12.2054     0.0000    14.0000 </r>
       <r>   -12.0533     0.0000    14.0000 </r>
       <r>   -11.9013     0.0000    14.0000 </r>
       <r>   -11.7493     0.0000    14.0000 </r>
       <r>   -11.5973     0.0000    14.0000 </r>
       <r>   -11.4453     0.0000    14.0000 </r>
       <r>   -11.2932     0.0000    14.0000 </r>
       <r>   -11.1412     0.0000    14.0000 </r>
       <r>   -10.9892     0.0000    14.0000 </r>
       <r>   -10.8372     0.0000    14.0000 </r>
       <r>   -10.6852     0.0000    14.0000 </r>
       <r>   -10.5331     0.0000    14.0000 </r>
       <r>   -10.3811     0.0000    14.0000 </r>
       <r>   -10.2291     0.0000    14.0000 </r>
       <r>   -10.0771     0.0000    14.0000 </r>
       <r>    -9.9251    24.9340    19.8985 </r>
       <r>    -9.7730     0.0000    20.0000 </r>
       <r>    -9.6210     0.0000    20.0000 </r>
       <r>    -9.4690     0.0000    20.0000 </r>
       <r>    -9.3170     0.0000    20.0000 </r>
       <r>    -9.1650     0.0000    20.0000 </r>
       <r>    -9.0129     0.0000    20.0000 </r>
       <r>    -8.8609     0.0000    20.0000 </r>
       <r>    -8.7089     0.0000    20.0000 </r>
       <r>    -8.5569     0.0000    20.0000 </r>
       <r>    -8.4049     0.0000    20.0000 </r>
       <r>    -8.2528     0.0000    20.0000 </r>
       <r>    -8.1008     0.0000    20.0000 </r>
       <r>    -7.9488     0.0000    20.0000 </r>
       <r>    -7.7968     0.0000    20.0000 </r>
       <r>    -7.6448     0.0000    20.0000 </r>
       <r>    -7.4927     0.0000    20.0000 </r>
       <r>    -7.3407     0.0000    20.0000 </r>
       <r>    -7.1887     0.0000    20.0000 </r>
       <r>    -7.0367     0.0000    20.0000 </r>
       <r>    -6.8847     0.0000    20.0000 </r>
       <r>    -6.7326     0.0000    20.0000 </r>
       <r>    -6.5806     0.0000    20.0000 </r>
       <r>    -6.4286     0.0000    20.0000 </r>
       <r>    -6.2766     0.0000    20.0000 </r>
       <r>    -6.1246     0.0000    20.0000 </r>
       <r>    -5.9725     0.0000    20.0000 </r>
       <r>    -5.8205     0.0000    20.0000 </r>
       <r>    -5.6685     0.0000    20.0000 </r>
       <r>    -5.5165     0.0000    20.0000 </r>
       <r>    -5.3645     0.0000    20.0000 </r>
       <r>    -5.2124     0.0000    20.0000 </r>
       <r>    -5.0604     0.0000    20.0000 </r>
       <r>    -4.9084     0.0000    20.0000 </r>
       <r>    -4.7564     0.0000    20.0000 </r>
       <r>    -4.6044     0.0000    20.0000 </r>
       <r>    -4.4523     0.0000    20.0000 </r>
       <r>    -4.3003     0.0000    20.0000 </r>
       <r>    -4.1483     0.0000    20.0000 </r>
       <r>    -3.9963     0.0000    20.0000 </r>
       <r>    -3.8443     0.0000    20.0000 </r>
       <r>    -3.6922     0.0000    20.0000 </r>
       <r>    -3.5402     0.0000    20.0000 </r>
       <r>    -3.3882     0.0000    20.0000 </r>
       <r>    -3.2362     0.0000    20.0000 </r>
       <r>    -3.0842     0.0000    20.0000 </r>
       <r>    -2.9321     0.0000    20.0000 </r>
       <r>    -2.7801     0.0000    20.0000 </r>
       <r>    -2.6281     0.0000    20.0000 </r>
       <r>    -2.4761     0.6457    20.1042 </r>
       <r>    -2.3241     1.1223    20.4286 </r>
       <r>    -2.1720     2.4738    21.0661 </r>
       <r>    -2.0200     7.7307    22.9232 </r>
       <r>    -1.8680     5.0568    24.4767 </r>
       <r>    -1.7160     4.2096    25.6199 </r>
       <r>    -1.5640     3.8358    26.5951 </r>
       <r>    -1.4119     4.4584    27.5378 </r>
       <r>    -1.2599     4.6231    28.5908 </r>
       <r>    -1.1079     5.4844    29.7897 </r>
       <r>    -0.9559     5.5796    31.6722 </r>
       <r>    -0.8039     0.6710    32.0000 </r>
       <r>    -0.6518     0.0000    32.0000 </r>
       <r>    -0.4998     0.0000    32.0000 </r>
       <r>    -0.3478     0.0000    32.0000 </r>
       <r>    -0.1958     0.0000    32.0000 </r>
       <r>    -0.0438     0.0000    32.0000 </r>
       <r>     0.1083     0.0000    32.0000 </r>
       <r>     0.2603     0.0000    32.0000 </r>
       <r>     0.4123     0.0000    32.0000 </r>
       <r>     0.5643     0.0000    32.0000 </r>
       <r>     0.7163     0.0000    32.0000 </r>
       <r>     0.8684     0.0000    32.0000 </r>
       <r>     1.0204     0.0000    32.0000 </r>
       <r>     1.1724     0.0000    32.0000 </r>
       <r>     1.3244     0.0000    32.0000 </r>
       <r>     1.4764     0.0000    32.0000 </r>
       <r>     1.6285     0.0000    32.0000 </r>
       <r>     1.7805     0.0000    32.0000 </r>
       <r>     1.9325     0.0000    32.0000 </r>
       <r>     2.0845     0.0000    32.0000 </r>
       <r>     2.2365     0.0000    32.0000 </r>
       <r>     2.3886     0.0000    32.0000 </r>
       <r>     2.5406     0.0000    32.0000 </r>
       <r>     2.6926     0.0000    32.0000 </r>
       <r>     2.8446     0.0000    32.0000 </r>
       <r>     2.9966     0.0000    32.0000 </r>
       <r>     3.1487     0.0000    32.0020 </r>
       <r>     3.3007     0.1107    32.0188 </r>
       <r>     3.4527     0.0000    32.0300 </r>
       <r>     3.6047     0.1579    32.0540 </r>
       <r>     3.7567     0.4083    32.1161 </r>
       <r>     3.9088     0.0345    32.1233 </r>
       <r>     4.0608     0.2527    32.1684 </r>
       <r>     4.2128     0.0000    32.2260 </r>
       <r>     4.3648     0.3013    32.3198 </r>
       <r>     4.5168     0.1581    32.3680 </r>
       <r>     4.6689     0.7165    32.5609 </r>
       <r>     4.8209     0.7446    32.7932 </r>
       <r>     4.9729     1.1104    33.0888 </r>
       <r>     5.1249     1.6885    33.5487 </r>
       <r>     5.2770     1.6827    34.2478 </r>
       <r>     5.4290     1.3439    34.6003 </r>
       <r>     5.5810     1.5766    35.2237 </r>
       <r>     5.7330     3.8180    36.2184 </r>
       <r>     5.8850     3.5547    37.2384 </r>
       <r>     6.0371     3.8640    38.2474 </r>
       <r>     6.1891     3.0256    38.9720 </r>
       <r>     6.3411     1.1704    39.5759 </r>
       <r>     6.4931     1.1339    39.9744 </r>
       <r>     6.6451     2.6415    40.6356 </r>
       <r>     6.7972     4.4680    41.7512 </r>
       <r>     6.9492     2.0984    42.6670 </r>
       <r>     7.1012     2.0576    43.2428 </r>
       <r>     7.2532     3.8390    44.2056 </r>
       <r>     7.4052     3.2632    44.8221 </r>
       <r>     7.5573     2.2669    45.2986 </r>
       <r>     7.7093     1.5787    45.7700 </r>
       <r>     7.8613     2.4859    46.4839 </r>
       <r>     8.0133     3.1425    47.4477 </r>
       <r>     8.1653     4.0588    48.9130 </r>
       <r>     8.3174     7.7444    50.7493 </r>
       <r>     8.4694     5.2704    52.0972 </r>
       <r>     8.6214     2.2329    53.4255 </r>
       <r>     8.7734     2.6553    54.1937 </r>
       <r>     8.9254     2.1509    54.7290 </r>
       <r>     9.0775     0.7272    55.2986 </r>
       <r>     9.2295     1.3387    55.6835 </r>
       <r>     9.3815     0.5295    56.1885 </r>
       <r>     9.5335     0.9867    56.3660 </r>
       <r>     9.6855     0.9548    56.5591 </r>
       <r>     9.8376     1.4047    56.8435 </r>
       <r>     9.9896     2.1673    57.3195 </r>
       <r>    10.1416     1.3919    57.5976 </r>
       <r>    10.2936     2.3220    58.3210 </r>
       <r>    10.4456     2.1699    58.9219 </r>
       <r>    10.5977     4.2238    60.2301 </r>
       <r>    10.7497     4.0238    61.1317 </r>
       <r>    10.9017     3.8210    61.9769 </r>
       <r>    11.0537     3.2296    62.8950 </r>
       <r>    11.2057     2.1414    63.5195 </r>
       <r>    11.3578     1.1700    63.7559 </r>
       <r>    11.5098     0.2832    63.8651 </r>
       <r>    11.6618     0.1531    63.9053 </r>
       <r>    11.8138     0.0132    63.9880 </r>
       <r>    11.9658     0.0000    64.0000 </r>
       <r>    12.1179     0.0000    64.0000 </r>
       <r>    12.2699     0.0000    64.0000 </r>
       <r>    12.4219     0.0000    64.0000 </r>
       <r>    12.5739     0.0000    64.0000 </r>
       <r>    12.7259     0.0000    64.0000 </r>
       <r>    12.8780     0.0000    64.0000 </r>
       <r>    13.0300     0.0000    64.0000 </r>
       <r>    13.1820     0.0000    64.0000 </r>
       <r>    13.3340     0.0000    64.0000 </r>
       <r>    13.4860     0.0000    64.0000 </r>
       <r>    13.6381     0.0000    64.0000 </r>
       <r>    13.7901     0.0000    64.0000 </r>
       <r>    13.9421     0.0000    64.0000 </r>
      </set>
     </set>
    </array>
   </total>
  </dos>
 </calculation>
 <structure name="finalpos" >
  <crystal>
   <varray name="basis" >
    <v>      -4.11810028       0.00000000       4.11810028 </v>
    <v>       0.00000000       4.11810028       4.11810028 </v>
    <v>      -4.11810028       4.11810028       0.00000000 </v>
   </varray>
   <i name="volume">    139.67566530 </i>
   <varray name="rec_basis" >
    <v>      -0.12141521      -0.12141521       0.12141521 </v>
    <v>       0.12141521       0.12141521       0.12141521 </v>
    <v>      -0.12141521       0.12141521      -0.12141521 </v>
   </varray>
  </crystal>
  <varray name="positions" >
   <v>       0.00000000       0.00000000       0.00000000 </v>
   <v>       0.49999996       0.50000004       0.49999996 </v>
   <v>       0.74999998       0.75000013       0.74999998 </v>
   <v>       0.25000002       0.25000010       0.24999994 </v>
  </varray>
 </structure>
</modeling>
