
     Program PWSCF v.7.1 starts on  3Jan2024 at 14:39:30 

     This program is part of the open-source Quantum ESPRESSO suite
     for quantum simulation of materials; please cite
         "P. Giannozzi et al., J. Phys.:Condens. Matter 21 395502 (2009);
         "P. Giannozzi et al., J. Phys.:Condens. Matter 29 465901 (2017);
         "P. Giannozzi et al., J. Chem. Phys. 152 154105 (2020);
          URL http://www.quantum-espresso.org", 
     in publications or presentations arising from this work. More details at
     http://www.quantum-espresso.org/quote

     Parallel version (MPI), running on     8 processors

     MPI processes distributed on     1 nodes
     118736 MiB available memory on the printing compute node when the environment starts
 
     Reading input from pw_mp-22903_nscf_k3000_E130.in
Warning: card &IONS ignored
Warning: card / ignored
Warning: card &CELL ignored
Warning: card / ignored

     Current dimensions of program PWSCF are:
     Max number of different atomic species (ntypx) = 10
     Max number of k-points (npk) =  40000
     Max angular momentum in pseudopotentials (lmaxx) =  4

     Atomic positions and unit cell read from directory:
     out/mp-22903.save/
     Atomic positions from file used, from input discarded
 
 
     R & G space division:  proc/nbgrp/npool/nimage =       8
     Subspace diagonalization in iterative solution of the eigenvalue problem:
     a serial algorithm will be used

 
     Parallelization info
     --------------------
     sticks:   dense  smooth     PW     G-vecs:    dense   smooth      PW
     Min         434     434    119                16957    16957    2472
     Max         438     438    120                16958    16958    2477
     Sum        3481    3481    955               135659   135659   19795
 
     Using Slab Decomposition
 


     bravais-lattice index     =            2
     lattice parameter (alat)  =      13.9506  a.u.
     unit-cell volume          =     678.7623 (a.u.)^3
     number of atoms/cell      =            2
     number of atomic types    =            2
     number of electrons       =        26.00
     number of Kohn-Sham states=           26
     kinetic-energy cutoff     =     130.0000  Ry
     charge density cutoff     =     520.0000  Ry
     Exchange-correlation= PBE
                           (   1   4   3   4   0   0   0)

     celldm(1)=  13.950590  celldm(2)=   0.000000  celldm(3)=   0.000000
     celldm(4)=   0.000000  celldm(5)=   0.000000  celldm(6)=   0.000000

     crystal axes: (cart. coord. in units of alat)
               a(1) = (  -0.500000   0.000000   0.500000 )  
               a(2) = (   0.000000   0.500000   0.500000 )  
               a(3) = (  -0.500000   0.500000   0.000000 )  

     reciprocal axes: (cart. coord. in units 2 pi/alat)
               b(1) = ( -1.000000 -1.000000  1.000000 )  
               b(2) = (  1.000000  1.000000  1.000000 )  
               b(3) = ( -1.000000  1.000000 -1.000000 )  


     PseudoPot. # 1 for I  read from file:
     /usr/scratch4/magr4985/MG/devEb/pseudo/SG15/I.upf
     MD5 check sum: 2bc24df9af9f874725967c58cc477d99
     Pseudo is Norm-conserving, Zval = 17.0
     Generated using ONCVPSP code by D. R. Hamann
     Using radial grid of  602 points,  6 beta functions with: 
                l(1) =   0
                l(2) =   0
                l(3) =   1
                l(4) =   1
                l(5) =   2
                l(6) =   2

     PseudoPot. # 2 for Rb read from file:
     /usr/scratch4/magr4985/MG/devEb/pseudo/SG15/Rb.upf
     MD5 check sum: 083fcde99d2d8624b357fda38a9b1c57
     Pseudo is Norm-conserving, Zval =  9.0
     Generated using ONCVPSP code by D. R. Hamann
     Using radial grid of  602 points,  6 beta functions with: 
                l(1) =   0
                l(2) =   0
                l(3) =   1
                l(4) =   1
                l(5) =   2
                l(6) =   2

     atomic species   valence    mass     pseudopotential
        I             17.00   126.90450     I ( 1.00)
        Rb             9.00    85.46780     Rb( 1.00)

     48 Sym. Ops., with inversion, found



   Cartesian axes

     site n.     atom                  positions (alat units)
         1           Rb  tau(   1) = (   0.0000000   0.0000000   0.0000000  )
         2           I   tau(   2) = (  -0.5000000   0.5000000   0.5000000  )

     number of k points=    72  Gaussian smearing, width (Ry)=  0.0005
                       cart. coord. in units 2pi/alat
        k(    1) = (   0.0000000   0.0000000   0.0000000), wk =   0.0011574
        k(    2) = (  -0.0833333   0.0833333  -0.0833333), wk =   0.0092593
        k(    3) = (  -0.1666667   0.1666667  -0.1666667), wk =   0.0092593
        k(    4) = (  -0.2500000   0.2500000  -0.2500000), wk =   0.0092593
        k(    5) = (  -0.3333333   0.3333333  -0.3333333), wk =   0.0092593
        k(    6) = (  -0.4166667   0.4166667  -0.4166667), wk =   0.0092593
        k(    7) = (   0.5000000  -0.5000000   0.5000000), wk =   0.0046296
        k(    8) = (   0.0000000   0.1666667   0.0000000), wk =   0.0069444
        k(    9) = (  -0.0833333   0.2500000  -0.0833333), wk =   0.0277778
        k(   10) = (  -0.1666667   0.3333333  -0.1666667), wk =   0.0277778
        k(   11) = (  -0.2500000   0.4166667  -0.2500000), wk =   0.0277778
        k(   12) = (  -0.3333333   0.5000000  -0.3333333), wk =   0.0277778
        k(   13) = (   0.5833333  -0.4166667   0.5833333), wk =   0.0277778
        k(   14) = (   0.5000000  -0.3333333   0.5000000), wk =   0.0277778
        k(   15) = (   0.4166667  -0.2500000   0.4166667), wk =   0.0277778
        k(   16) = (   0.3333333  -0.1666667   0.3333333), wk =   0.0277778
        k(   17) = (   0.2500000  -0.0833333   0.2500000), wk =   0.0277778
        k(   18) = (   0.1666667  -0.0000000   0.1666667), wk =   0.0138889
        k(   19) = (   0.0000000   0.3333333   0.0000000), wk =   0.0069444
        k(   20) = (  -0.0833333   0.4166667  -0.0833333), wk =   0.0277778
        k(   21) = (  -0.1666667   0.5000000  -0.1666667), wk =   0.0277778
        k(   22) = (  -0.2500000   0.5833333  -0.2500000), wk =   0.0277778
        k(   23) = (   0.6666667  -0.3333333   0.6666667), wk =   0.0277778
        k(   24) = (   0.5833333  -0.2500000   0.5833333), wk =   0.0277778
        k(   25) = (   0.5000000  -0.1666667   0.5000000), wk =   0.0277778
        k(   26) = (   0.4166667  -0.0833333   0.4166667), wk =   0.0277778
        k(   27) = (   0.3333333   0.0000000   0.3333333), wk =   0.0138889
        k(   28) = (   0.0000000   0.5000000   0.0000000), wk =   0.0069444
        k(   29) = (  -0.0833333   0.5833333  -0.0833333), wk =   0.0277778
        k(   30) = (  -0.1666667   0.6666667  -0.1666667), wk =   0.0277778
        k(   31) = (   0.7500000  -0.2500000   0.7500000), wk =   0.0277778
        k(   32) = (   0.6666667  -0.1666667   0.6666667), wk =   0.0277778
        k(   33) = (   0.5833333  -0.0833333   0.5833333), wk =   0.0277778
        k(   34) = (   0.5000000   0.0000000   0.5000000), wk =   0.0138889
        k(   35) = (   0.0000000   0.6666667   0.0000000), wk =   0.0069444
        k(   36) = (  -0.0833333   0.7500000  -0.0833333), wk =   0.0277778
        k(   37) = (   0.8333333  -0.1666667   0.8333333), wk =   0.0277778
        k(   38) = (   0.7500000  -0.0833333   0.7500000), wk =   0.0277778
        k(   39) = (   0.6666667  -0.0000000   0.6666667), wk =   0.0138889
        k(   40) = (   0.0000000   0.8333333   0.0000000), wk =   0.0069444
        k(   41) = (   0.9166667  -0.0833333   0.9166667), wk =   0.0277778
        k(   42) = (   0.8333333   0.0000000   0.8333333), wk =   0.0138889
        k(   43) = (   0.0000000  -1.0000000   0.0000000), wk =   0.0034722
        k(   44) = (  -0.1666667   0.3333333   0.0000000), wk =   0.0277778
        k(   45) = (  -0.2500000   0.4166667  -0.0833333), wk =   0.0555556
        k(   46) = (  -0.3333333   0.5000000  -0.1666667), wk =   0.0555556
        k(   47) = (   0.5833333  -0.4166667   0.7500000), wk =   0.0555556
        k(   48) = (   0.5000000  -0.3333333   0.6666667), wk =   0.0277778
        k(   49) = (  -0.1666667   0.5000000   0.0000000), wk =   0.0277778
        k(   50) = (  -0.2500000   0.5833333  -0.0833333), wk =   0.0555556
        k(   51) = (   0.6666667  -0.3333333   0.8333333), wk =   0.0555556
        k(   52) = (   0.5833333  -0.2500000   0.7500000), wk =   0.0555556
        k(   53) = (   0.5000000  -0.1666667   0.6666667), wk =   0.0555556
        k(   54) = (   0.4166667  -0.0833333   0.5833333), wk =   0.0555556
        k(   55) = (   0.3333333   0.0000000   0.5000000), wk =   0.0277778
        k(   56) = (  -0.1666667   0.6666667  -0.0000000), wk =   0.0277778
        k(   57) = (   0.7500000  -0.2500000   0.9166667), wk =   0.0555556
        k(   58) = (   0.6666667  -0.1666667   0.8333333), wk =   0.0555556
        k(   59) = (   0.5833333  -0.0833333   0.7500000), wk =   0.0555556
        k(   60) = (   0.5000000   0.0000000   0.6666667), wk =   0.0277778
        k(   61) = (   0.8333333  -0.1666667   1.0000000), wk =   0.0277778
        k(   62) = (   0.7500000  -0.0833333   0.9166667), wk =   0.0555556
        k(   63) = (   0.6666667   0.0000000   0.8333333), wk =   0.0277778
        k(   64) = (  -0.1666667  -1.0000000  -0.0000000), wk =   0.0138889
        k(   65) = (   0.6666667  -0.3333333   1.0000000), wk =   0.0277778
        k(   66) = (   0.5833333  -0.2500000   0.9166667), wk =   0.0555556
        k(   67) = (   0.5000000  -0.1666667   0.8333333), wk =   0.0277778
        k(   68) = (   0.6666667  -0.1666667   1.0000000), wk =   0.0277778
        k(   69) = (   0.5833333  -0.0833333   0.9166667), wk =   0.0555556
        k(   70) = (   0.5000000   0.0000000   0.8333333), wk =   0.0277778
        k(   71) = (  -0.3333333  -1.0000000   0.0000000), wk =   0.0138889
        k(   72) = (  -0.5000000  -1.0000000   0.0000000), wk =   0.0069444

     Dense  grid:   135659 G-vectors     FFT dimensions: (  72,  72,  72)

     Estimated max dynamical RAM per process >      75.83 MB

     Estimated total dynamical RAM >     606.68 MB

     The potential is recalculated from file :
     out/mp-22903.save/charge-density

     Starting wfcs are random

     Band Structure Calculation
     Davidson diagonalization with overlap

     ethr =  5.00E-06,  avg # of iterations = 21.7

     total cpu time spent up to now is       37.5 secs

     End of band structure calculation

          k = 0.0000 0.0000 0.0000 ( 16889 PWs)   bands (ev):

   -40.2250 -40.2250 -40.2208 -40.2208 -40.2208 -22.6756  -7.8955  -6.7620
    -6.7620  -6.7620   2.4558   2.4558   2.4558   6.3139   8.7299   8.7299
     8.7299   9.4305   9.4305  11.8860  15.5359  15.5359  15.5359  16.0344
    16.0344  16.0344

          k =-0.0833 0.0833-0.0833 ( 16934 PWs)   bands (ev):

   -40.2250 -40.2250 -40.2208 -40.2208 -40.2208 -22.6754  -7.9064  -6.7622
    -6.7622  -6.7461   2.3600   2.4316   2.4316   6.4783   8.6938   8.8038
     8.8038   9.5215   9.5215  12.1215  14.7858  15.1858  15.1858  16.1224
    16.1224  16.4909

          k =-0.1667 0.1667-0.1667 ( 16949 PWs)   bands (ev):

   -40.2250 -40.2250 -40.2208 -40.2208 -40.2208 -22.6748  -7.9350  -6.7628
    -6.7628  -6.7041   2.1255   2.3673   2.3673   6.9024   8.6533   9.0175
     9.0175   9.7878   9.7878  12.7556  13.7859  14.5208  14.5208  15.9906
    15.9906  16.7002

          k =-0.2500 0.2500-0.2500 ( 16985 PWs)   bands (ev):

   -40.2250 -40.2250 -40.2208 -40.2208 -40.2208 -22.6741  -7.9714  -6.7636
    -6.7636  -6.6492   1.8509   2.2833   2.2833   7.4225   8.7412   9.3538
     9.3538  10.2020  10.2020  12.8380  13.6873  13.7661  13.7661  15.4793
    15.4793  16.3471

          k =-0.3333 0.3333-0.3333 ( 17000 PWs)   bands (ev):

   -40.2250 -40.2250 -40.2208 -40.2208 -40.2208 -22.6733  -8.0051  -6.7645
    -6.7645  -6.5967   1.6117   2.2032   2.2032   7.8383   9.0606   9.7928
     9.7928  10.6912  10.6912  12.1173  13.0463  13.0463  14.5761  14.7317
    14.7317  15.6489

          k =-0.4167 0.4167-0.4167 ( 16989 PWs)   bands (ev):

   -40.2250 -40.2250 -40.2208 -40.2208 -40.2208 -22.6727  -8.0284  -6.7651
    -6.7651  -6.5594   1.4526   2.1468   2.1468   8.0719   9.4755  10.3039
    10.3039  11.0299  11.0299  11.6968  12.5766  12.5766  13.9693  13.9693
    14.3049  16.1072

          k = 0.5000-0.5000 0.5000 ( 16986 PWs)   bands (ev):

   -40.2250 -40.2250 -40.2208 -40.2208 -40.2208 -22.6725  -8.0366  -6.7653
    -6.7653  -6.5460   1.3972   2.1266   2.1266   8.1510   9.6560  10.7403
    10.7403  10.8958  10.8958  11.5976  12.5539  12.5539  13.5542  13.5542
    13.9582  16.5678

          k = 0.0000 0.1667 0.0000 ( 16953 PWs)   bands (ev):

   -40.2250 -40.2250 -40.2208 -40.2208 -40.2208 -22.6753  -7.9087  -6.7643
    -6.7643  -6.7389   2.3142   2.4352   2.4352   6.5234   8.5640   8.8909
     8.8909   9.4778   9.6235  12.1916  14.8486  14.9246  14.9246  16.0648
    16.5102  16.5102

          k =-0.0833 0.2500-0.0833 ( 16955 PWs)   bands (ev):

   -40.2250 -40.2250 -40.2208 -40.2208 -40.2208 -22.6749  -7.9279  -6.7665
    -6.7649  -6.7093   2.1388   2.3836   2.3945   6.8407   8.4533   9.0831
     9.1151   9.6177   9.8917  12.6756  13.9105  14.4157  14.6595  15.8267
    16.5542  16.8147

          k =-0.1667 0.3333-0.1667 ( 16968 PWs)   bands (ev):

   -40.2250 -40.2250 -40.2208 -40.2208 -40.2208 -22.6742  -7.9572  -6.7683
    -6.7648  -6.6657   1.9082   2.2950   2.3231   7.3205   8.4677   9.3564
     9.4466   9.9402  10.2836  12.9842  13.4757  13.7499  14.1497  15.3057
    16.1082  16.7225

          k =-0.2500 0.4167-0.2500 ( 17003 PWs)   bands (ev):

   -40.2250 -40.2250 -40.2208 -40.2208 -40.2208 -22.6734  -7.9878  -6.7691
    -6.7656  -6.6192   1.6858   2.2053   2.2423   7.7747   8.7100   9.7131
     9.8615  10.4026  10.6817  12.3198  13.0365  13.4332  14.4558  14.6275
    15.3473  16.0863

          k =-0.3333 0.5000-0.3333 ( 16986 PWs)   bands (ev):

   -40.2250 -40.2250 -40.2208 -40.2208 -40.2208 -22.6728  -8.0118  -6.7688
    -6.7675  -6.5814   1.5192   2.1395   2.1736   8.0574   9.1708  10.1085
    10.3431  10.8326  10.8513  12.1012  12.4522  12.8171  13.9167  14.5158
    14.8325  15.9341

          k = 0.5833-0.4167 0.5833 ( 16986 PWs)   bands (ev):

   -40.2250 -40.2250 -40.2208 -40.2208 -40.2208 -22.6724  -8.0241  -6.7698
    -6.7674  -6.5616   1.4370   2.1119   2.1331   8.1964   9.5183  10.3877
    10.7488  10.8528  10.9575  11.9875  12.3714  12.4337  13.7902  13.8325
    14.2363  16.5385

          k = 0.5000-0.3333 0.5000 ( 16977 PWs)   bands (ev):

   -40.2250 -40.2250 -40.2208 -40.2208 -40.2208 -22.6725  -8.0223  -6.7719
    -6.7653  -6.5642   1.4520   2.1277   2.1297   8.1782   9.4811  10.3583
    10.3730  10.8323  11.2473  11.9263  12.3681  12.5855  13.7332  13.7923
    14.5874  16.3955

          k = 0.4167-0.2500 0.4167 ( 16983 PWs)   bands (ev):

   -40.2250 -40.2250 -40.2208 -40.2208 -40.2208 -22.6730  -8.0067  -6.7730
    -6.7631  -6.5888   1.5625   2.1643   2.1826   8.0020   9.0900   9.8476
    10.1253  10.6377  11.0741  11.9820  12.7877  12.9564  14.2159  14.3045
    15.1489  15.8687

          k = 0.3333-0.1667 0.3333 ( 16987 PWs)   bands (ev):

   -40.2250 -40.2250 -40.2208 -40.2208 -40.2208 -22.6737  -7.9805  -6.7727
    -6.7614  -6.6301   1.7527   2.2296   2.2638   7.6565   8.7011   9.4047
     9.7447  10.2775  10.5890  12.4104  13.4463  13.6203  14.1689  14.9866
    15.1038  16.6024

          k = 0.2500-0.0833 0.2500 ( 16953 PWs)   bands (ev):

   -40.2250 -40.2250 -40.2208 -40.2208 -40.2208 -22.6744  -7.9495  -6.7705
    -6.7605  -6.6783   1.9892   2.3101   2.3499   7.1670   8.5598   9.0706
     9.3724   9.8727  10.1086  13.1402  13.2389  14.1741  14.3608  15.4877
    15.7938  17.1174

          k = 0.1667-0.0000 0.1667 ( 16938 PWs)   bands (ev):

   -40.2250 -40.2250 -40.2208 -40.2208 -40.2208 -22.6751  -7.9219  -6.7667
    -6.7608  -6.7213   2.2178   2.3849   2.4131   6.7208   8.5996   8.8655
     9.0432   9.6035   9.7386  12.4816  14.1128  14.6980  14.9988  15.7604
    16.2164  16.9389

          k = 0.0000 0.3333 0.0000 ( 16949 PWs)   bands (ev):

   -40.2250 -40.2250 -40.2208 -40.2208 -40.2208 -22.6746  -7.9305  -6.7706
    -6.7706  -6.6975   2.0321   2.3833   2.3833   6.9971   8.2048   9.3566
     9.3566   9.6140  10.1396  12.9646  13.6395  14.1249  14.1249  16.1557
    16.8840  16.8845

          k =-0.0833 0.4167-0.0833 ( 16981 PWs)   bands (ev):

   -40.2250 -40.2250 -40.2208 -40.2208 -40.2208 -22.6740  -7.9420  -6.7741
    -6.7727  -6.6780   1.8847   2.3220   2.3373   7.3474   8.0873   9.6689
     9.6736   9.8342  10.4590  12.9418  13.5542  13.6472  13.8307  15.8483
    16.6401  16.6607

          k =-0.1667 0.5000-0.1667 ( 16979 PWs)   bands (ev):

   -40.2250 -40.2250 -40.2208 -40.2208 -40.2208 -22.6733  -7.9587  -6.7759
    -6.7738  -6.6533   1.7401   2.2229   2.2711   7.7691   8.1966   9.9761
     9.9949  10.3079  10.6700  12.4405  13.0312  13.3486  14.4877  15.1051
    15.9556  16.3987

          k =-0.2500 0.5833-0.2500 ( 16992 PWs)   bands (ev):

   -40.2250 -40.2250 -40.2208 -40.2208 -40.2208 -22.6727  -7.9756  -6.7770
    -6.7756  -6.6271   1.6221   2.1302   2.2031   8.0296   8.6731  10.1759
    10.3641  10.6516  10.8371  12.2889  12.4186  13.0138  14.3398  15.1042
    15.2729  16.0574

          k = 0.6667-0.3333 0.6667 ( 16978 PWs)   bands (ev):

   -40.2250 -40.2250 -40.2208 -40.2208 -40.2208 -22.6723  -7.9885  -6.7824
    -6.7733  -6.6053   1.5463   2.0775   2.1510   8.2365   9.1763  10.0493
    10.7048  10.7492  11.1150  12.1591  12.1734  12.7463  14.2194  14.3317
    14.8395  16.5246

          k = 0.5833-0.2500 0.5833 ( 16999 PWs)   bands (ev):

   -40.2250 -40.2250 -40.2208 -40.2208 -40.2208 -22.6722  -7.9944  -6.7874
    -6.7696  -6.5941   1.5252   2.0782   2.1268   8.3583   9.3217   9.9244
    10.5271  10.7585  11.4005  12.2021  12.4097  12.4503  13.9249  14.0529
    15.0223  16.6399

          k = 0.5000-0.1667 0.5000 ( 16993 PWs)   bands (ev):

   -40.2250 -40.2250 -40.2208 -40.2208 -40.2208 -22.6725  -7.9922  -6.7896
    -6.7655  -6.5974   1.5665   2.1278   2.1361   8.2825   9.0699   9.8742
    10.0346  10.7779  11.4839  12.0310  12.6597  12.8242  13.8480  14.1999
    15.7934  16.2351

          k = 0.4167-0.0833 0.4167 ( 16991 PWs)   bands (ev):

   -40.2250 -40.2250 -40.2208 -40.2208 -40.2208 -22.6731  -7.9823  -6.7873
    -6.7621  -6.6155   1.6688   2.1770   2.2086   8.0214   8.6640   9.5964
     9.9005  10.5655  11.0663  12.0177  13.2119  13.3622  14.2490  14.7414
    15.0156  16.9399

          k = 0.3333 0.0000 0.3333 ( 16996 PWs)   bands (ev):

   -40.2250 -40.2250 -40.2208 -40.2208 -40.2208 -22.6738  -7.9668  -6.7804
    -6.7602  -6.6450   1.8191   2.2403   2.2930   7.5839   8.5138   9.2678
     9.7148  10.1868  10.5531  12.4623  13.6621  13.8570  14.1618  15.0335
    15.1549  17.3036

          k = 0.0000 0.5000 0.0000 ( 17033 PWs)   bands (ev):

   -40.2250 -40.2250 -40.2208 -40.2208 -40.2208 -22.6736  -7.9300  -6.7794
    -6.7794  -6.6886   1.8170   2.3217   2.3217   7.5199   7.8342   9.8198
    10.0804  10.0804  10.6350  12.6419  13.4210  13.4210  13.9953  16.1583
    16.3173  16.8083

          k =-0.0833 0.5833-0.0833 ( 16993 PWs)   bands (ev):

   -40.2250 -40.2250 -40.2208 -40.2208 -40.2208 -22.6730  -7.9245  -6.7829
    -6.7828  -6.6950   1.7525   2.2603   2.2810   7.7388   7.8652   9.9933
    10.4278  10.5550  10.6849  12.3245  13.0191  13.1404  14.6640  15.8431
    16.1652  16.3093

          k =-0.1667 0.6667-0.1667 ( 16995 PWs)   bands (ev):

   -40.2250 -40.2250 -40.2208 -40.2208 -40.2208 -22.6724  -7.9268  -6.7893
    -6.7835  -6.6885   1.7110   2.1543   2.2274   7.8129   8.3553  10.2268
    10.2859  10.8879  11.0779  12.0839  12.5096  13.1159  14.9695  15.5022
    15.5151  16.3163

          k = 0.7500-0.2500 0.7500 ( 16997 PWs)   bands (ev):

   -40.2250 -40.2250 -40.2208 -40.2208 -40.2208 -22.6720  -7.9361  -6.7999
    -6.7813  -6.6681   1.6882   2.0523   2.1755   8.0245   8.9300   9.8128
    10.6642  10.8373  11.3385  12.0350  12.2518  13.1883  14.6089  14.7136
    15.3826  16.7218

          k = 0.6667-0.1667 0.6667 ( 16986 PWs)   bands (ev):

   -40.2250 -40.2250 -40.2208 -40.2208 -40.2208 -22.6719  -7.9498  -6.8081
    -6.7766  -6.6426   1.6617   2.0109   2.1385   8.3263   9.2656   9.5755
    10.5412  10.7922  11.2899  12.2772  12.5017  12.8774  14.1722  14.5677
    15.2314  16.9088

          k = 0.5833-0.0833 0.5833 ( 16991 PWs)   bands (ev):

   -40.2250 -40.2250 -40.2208 -40.2208 -40.2208 -22.6721  -7.9645  -6.8089
    -6.7709  -6.6218   1.6307   2.0471   2.1254   8.5513   9.0700   9.5007
    10.3464  10.6689  11.6559  12.1911  12.5003  12.9402  14.0063  14.2079
    15.9954  16.7128

          k = 0.5000 0.0000 0.5000 ( 17000 PWs)   bands (ev):

   -40.2250 -40.2250 -40.2208 -40.2208 -40.2208 -22.6725  -7.9763  -6.8011
    -6.7655  -6.6120   1.6268   2.1263   2.1393   8.4313   8.7537   9.6937
     9.9181  10.7753  11.5477  12.0094  12.6992  13.2335  13.8001  14.5313
    15.9418  16.7688

          k = 0.0000 0.6667 0.0000 ( 17033 PWs)   bands (ev):

   -40.2250 -40.2250 -40.2208 -40.2208 -40.2208 -22.6725  -7.8942  -6.7882
    -6.7882  -6.7358   1.7480   2.2694   2.2694   7.5388   7.9732  10.0556
    10.5597  10.9823  10.9823  12.0799  12.9156  12.9156  15.0776  16.1507
    16.1512  16.1803

          k =-0.0833 0.7500-0.0833 ( 17001 PWs)   bands (ev):

   -40.2250 -40.2250 -40.2208 -40.2208 -40.2208 -22.6721  -7.8768  -6.7988
    -6.7905  -6.7534   1.7559   2.2106   2.2396   7.5131   8.2326  10.2283
    10.3341  11.3238  11.4467  11.8440  12.6751  12.9138  15.3503  15.4692
    15.6611  16.3357

          k = 0.8333-0.1667 0.8333 ( 17009 PWs)   bands (ev):

   -40.2250 -40.2250 -40.2208 -40.2208 -40.2208 -22.6718  -7.8781  -6.8192
    -6.7892  -6.7343   1.7870   2.0890   2.2003   7.6660   8.6284  10.0134
    10.5105  10.9716  11.6122  12.0976  12.6064  13.1440  14.7166  14.8255
    15.6671  16.6913

          k = 0.7500-0.0833 0.7500 ( 16996 PWs)   bands (ev):

   -40.2250 -40.2250 -40.2208 -40.2208 -40.2208 -22.6716  -7.8980  -6.8289
    -6.7846  -6.6986   1.8240   1.9548   2.1620   7.9645   9.0910   9.6914
    10.4719  10.8797  11.2518  12.4863  12.8978  13.0146  14.1419  14.9201
    15.2377  17.0987

          k = 0.6667-0.0000 0.6667 ( 16912 PWs)   bands (ev):

   -40.2250 -40.2250 -40.2208 -40.2208 -40.2208 -22.6718  -7.9300  -6.8241
    -6.7779  -6.6580   1.7432   1.9634   2.1348   8.3473   9.3467   9.3775
    10.3543  10.7605  11.3262  12.5211  12.8093  12.8611  14.0795  14.5501
    15.5923  16.8432

          k = 0.0000 0.8333 0.0000 ( 17002 PWs)   bands (ev):

   -40.2250 -40.2250 -40.2208 -40.2208 -40.2208 -22.6718  -7.8402  -6.8111
    -6.7947  -6.7947   1.7795   2.2363   2.2363   7.3528   8.2248  10.2547
    10.4372  11.4561  11.7976  11.7976  12.8444  12.8444  15.0790  15.0790
    15.7707  15.8096

          k = 0.9167-0.0833 0.9167 ( 17015 PWs)   bands (ev):

   -40.2250 -40.2250 -40.2208 -40.2208 -40.2208 -22.6716  -7.8309  -6.8388
    -6.7950  -6.7820   1.8086   2.1803   2.2185   7.3906   8.3642  10.3826
    10.4292  10.9662  11.8738  12.1149  13.0884  13.1499  14.4169  14.5379
    15.8541  15.9477

          k = 0.8333 0.0000 0.8333 ( 17006 PWs)   bands (ev):

   -40.2250 -40.2250 -40.2208 -40.2208 -40.2208 -22.6715  -7.8532  -6.8424
    -6.7913  -6.7486   1.8490   2.0483   2.1913   7.6112   8.6672  10.1911
    10.5540  10.6069  11.6077  12.4511  13.1548  13.2802  13.9696  14.5571
    15.6316  16.5667

          k = 0.0000-1.0000 0.0000 ( 16942 PWs)   bands (ev):

   -40.2250 -40.2250 -40.2208 -40.2208 -40.2208 -22.6715  -7.8124  -6.8495
    -6.7971  -6.7971   1.8084   2.2252   2.2252   7.2896   8.2663  10.3350
    10.7785  10.8233  11.9914  11.9914  13.3900  13.3900  14.1981  14.1981
    15.5983  15.9380

          k =-0.1667 0.3333 0.0000 ( 16952 PWs)   bands (ev):

   -40.2250 -40.2250 -40.2208 -40.2208 -40.2208 -22.6744  -7.9438  -6.7732
    -6.7642  -6.6815   1.9738   2.3252   2.3576   7.1738   8.3287   9.2694
     9.4611   9.7918  10.2192  13.1901  13.2159  14.1033  14.1624  15.6693
    16.1146  17.2253

          k =-0.2500 0.4167-0.0833 ( 16984 PWs)   bands (ev):

   -40.2250 -40.2250 -40.2208 -40.2208 -40.2208 -22.6737  -7.9647  -6.7785
    -6.7642  -6.6475   1.7927   2.2427   2.2862   7.6296   8.3593   9.5514
     9.7856  10.1856  10.6021  12.4852  13.4684  13.6421  14.1642  15.1052
    15.5170  16.9296

          k =-0.3333 0.5000-0.1667 ( 17000 PWs)   bands (ev):

   -40.2250 -40.2250 -40.2208 -40.2208 -40.2208 -22.6730  -7.9845  -6.7809
    -6.7660  -6.6155   1.6363   2.1634   2.2074   8.0075   8.6699   9.9147
    10.0531  10.6162  10.8928  12.1857  12.8184  13.1655  14.3238  14.7608
    15.2343  16.3324

          k = 0.5833-0.4167 0.7500 ( 16984 PWs)   bands (ev):

   -40.2250 -40.2250 -40.2208 -40.2208 -40.2208 -22.6724  -7.9985  -6.7807
    -6.7690  -6.5929   1.5317   2.1079   2.1484   8.2226   9.1545  10.0618
    10.3628  10.8559  11.1398  12.1845  12.4161  12.6486  13.9501  14.1748
    15.2265  16.3028

          k = 0.5000-0.3333 0.6667 ( 16992 PWs)   bands (ev):

   -40.2250 -40.2250 -40.2208 -40.2208 -40.2208 -22.6723  -8.0035  -6.7799
    -6.7708  -6.5848   1.4951   2.0882   2.1267   8.3112   9.3654  10.0871
    10.5490  11.0083  11.1324  12.1551  12.3205  12.4228  13.8370  14.2005
    14.6008  16.6337

          k =-0.1667 0.5000 0.0000 ( 16993 PWs)   bands (ev):

   -40.2250 -40.2250 -40.2208 -40.2208 -40.2208 -22.6734  -7.9443  -6.7823
    -6.7727  -6.6704   1.7830   2.2671   2.2915   7.6852   7.9836   9.8860
     9.9910  10.2324  10.6618  12.5036  13.2490  13.4046  14.2614  15.7567
    15.8721  16.3962

          k =-0.2500 0.5833-0.0833 ( 16978 PWs)   bands (ev):

   -40.2250 -40.2250 -40.2208 -40.2208 -40.2208 -22.6728  -7.9498  -6.7882
    -6.7747  -6.6583   1.7006   2.1803   2.2268   7.9754   8.2183  10.0407
    10.3263  10.6336  10.7684  12.3007  12.7436  13.1325  14.8836  15.0616
    15.5572  16.3273

          k = 0.6667-0.3333 0.8333 ( 16991 PWs)   bands (ev):

   -40.2250 -40.2250 -40.2208 -40.2208 -40.2208 -22.6723  -7.9570  -6.7913
    -6.7791  -6.6427   1.6460   2.0930   2.1686   8.1434   8.7735   9.8625
    10.6168  10.8391  11.0702  12.1633  12.3534  13.0569  14.3565  14.7006
    15.6850  16.3795

          k = 0.5833-0.2500 0.7500 ( 16987 PWs)   bands (ev):

   -40.2250 -40.2250 -40.2208 -40.2208 -40.2208 -22.6720  -7.9639  -6.7954
    -6.7798  -6.6283   1.6154   2.0465   2.1304   8.3685   9.1329   9.6914
    10.5169  11.1042  11.2415  12.0261  12.3574  12.8647  14.1634  14.5275
    15.0872  16.7899

          k = 0.5000-0.1667 0.6667 ( 16984 PWs)   bands (ev):

   -40.2250 -40.2250 -40.2208 -40.2208 -40.2208 -22.6721  -7.9691  -6.7990
    -6.7753  -6.6198   1.6069   2.0609   2.1210   8.4717   9.0661   9.6290
    10.4951  10.8492  11.4277  12.2148  12.3711  12.8050  14.0909  14.2312
    15.5219  16.6987

          k = 0.4167-0.0833 0.5833 ( 16989 PWs)   bands (ev):

   -40.2250 -40.2250 -40.2208 -40.2208 -40.2208 -22.6725  -7.9713  -6.7976
    -6.7696  -6.6205   1.6297   2.1225   2.1449   8.3548   8.6959   9.7488
    10.2058  10.8202  11.2220  12.2547  12.5750  13.0597  14.0141  14.5609
    15.9812  16.4065

          k = 0.3333 0.0000 0.5000 ( 16987 PWs)   bands (ev):

   -40.2250 -40.2250 -40.2208 -40.2208 -40.2208 -22.6730  -7.9698  -6.7902
    -6.7654  -6.6306   1.6927   2.1825   2.2160   8.0561   8.3758   9.8289
     9.9049  10.6123  10.8991  12.1794  13.0253  13.3703  14.5514  14.8242
    15.1764  16.6003

          k =-0.1667 0.6667-0.0000 ( 16995 PWs)   bands (ev):

   -40.2250 -40.2250 -40.2208 -40.2208 -40.2208 -22.6725  -7.9105  -6.7914
    -6.7860  -6.7096   1.7345   2.2145   2.2352   7.7017   8.1474  10.1224
    10.4298  10.9010  11.0343  12.0893  12.8337  12.9238  15.1856  15.4705
    15.8859  16.2904

          k = 0.7500-0.2500 0.9167 ( 17004 PWs)   bands (ev):

   -40.2250 -40.2250 -40.2208 -40.2208 -40.2208 -22.6720  -7.9063  -6.8014
    -6.7926  -6.7028   1.7418   2.1175   2.1849   7.8228   8.5675   9.9097
    10.5512  11.0249  11.3449  12.0482  12.5495  13.0477  14.7592  15.0364
    15.7959  16.6809

          k = 0.6667-0.1667 0.8333 ( 17006 PWs)   bands (ev):

   -40.2250 -40.2250 -40.2208 -40.2208 -40.2208 -22.6718  -7.9135  -6.8143
    -6.7912  -6.6814   1.7609   2.0126   2.1440   8.0823   9.0512   9.5160
    10.5842  10.9382  11.4807  12.1572  12.5660  13.0813  14.3750  14.7084
    15.3516  17.1960

          k = 0.5833-0.0833 0.7500 ( 16984 PWs)   bands (ev):

   -40.2250 -40.2250 -40.2208 -40.2208 -40.2208 -22.6718  -7.9301  -6.8186
    -6.7850  -6.6564   1.7359   1.9866   2.1187   8.4305   9.1266   9.3805
    10.3697  11.0369  11.3801  12.3830  12.5465  12.9520  14.1569  14.5811
    15.3834  16.9824

          k = 0.5000 0.0000 0.6667 ( 16993 PWs)   bands (ev):

   -40.2250 -40.2250 -40.2208 -40.2208 -40.2208 -22.6720  -7.9514  -6.8121
    -6.7768  -6.6347   1.6703   2.0495   2.1152   8.6691   8.7939   9.4085
    10.5852  10.6599  11.4873  12.3396  12.4985  12.9601  14.0706  14.3748
    16.0632  16.5911

          k = 0.8333-0.1667 1.0000 ( 17019 PWs)   bands (ev):

   -40.2250 -40.2250 -40.2208 -40.2208 -40.2208 -22.6718  -7.8592  -6.8179
    -6.7981  -6.7558   1.7873   2.1719   2.1994   7.5228   8.4180  10.1663
    10.4139  11.1228  11.7607  12.0311  12.8114  12.8925  14.8022  14.9432
    15.7730  16.3235

          k = 0.7500-0.0833 0.9167 ( 17006 PWs)   bands (ev):

   -40.2250 -40.2250 -40.2208 -40.2208 -40.2208 -22.6716  -7.8646  -6.8341
    -6.7995  -6.7309   1.8380   2.0566   2.1625   7.7150   8.7137   9.9156
    10.6333  10.6777  11.7923  12.3272  12.9674  13.0688  14.2593  14.5322
    15.5947  16.8106

          k = 0.6667 0.0000 0.8333 ( 17003 PWs)   bands (ev):

   -40.2250 -40.2250 -40.2208 -40.2208 -40.2208 -22.6716  -7.8913  -6.8330
    -6.7942  -6.6957   1.8959   1.9081   2.1348   8.0470   9.0768   9.5351
    10.3451  11.0226  11.4358  12.6484  12.7753  13.0170  14.0202  14.8790
    15.1291  17.1166

          k =-0.1667-1.0000-0.0000 ( 16996 PWs)   bands (ev):

   -40.2250 -40.2250 -40.2208 -40.2208 -40.2208 -22.6715  -7.8329  -6.8459
    -6.8006  -6.7666   1.8289   2.1519   2.1873   7.4618   8.4596  10.4007
    10.4780  10.6648  12.0031  12.1449  13.2771  13.3129  14.1516  14.1933
    15.8157  16.1768

          k = 0.6667-0.3333 1.0000 ( 16997 PWs)   bands (ev):

   -40.2250 -40.2250 -40.2208 -40.2208 -40.2208 -22.6723  -7.9403  -6.8001
    -6.7813  -6.6588   1.6926   2.1332   2.1500   8.1563   8.5115   9.7694
    10.7192  10.8197  10.9395  12.2247  12.7124  12.9513  14.4273  14.8891
    16.0655  16.3988

          k = 0.5833-0.2500 0.9167 ( 16982 PWs)   bands (ev):

   -40.2250 -40.2250 -40.2208 -40.2208 -40.2208 -22.6719  -7.9329  -6.8071
    -6.7911  -6.6563   1.7125   2.0579   2.1069   8.3796   8.8794   9.3983
    10.6263  11.1310  11.2103  12.3058  12.4689  12.9422  14.2775  14.5325
    15.6741  16.8281

          k = 0.5000-0.1667 0.8333 ( 16980 PWs)   bands (ev):

   -40.2250 -40.2250 -40.2208 -40.2208 -40.2208 -22.6718  -7.9301  -6.8089
    -6.7963  -6.6548   1.7293   2.0166   2.0949   8.5795   8.8741   9.3829
    10.3637  11.3998  11.4651  12.1257  12.3073  13.0285  14.2093  14.6579
    15.1623  17.2612

          k = 0.6667-0.1667 1.0000 ( 17012 PWs)   bands (ev):

   -40.2250 -40.2250 -40.2208 -40.2208 -40.2208 -22.6717  -7.8944  -6.8138
    -6.8074  -6.6959   1.7972   2.0716   2.1077   8.0031   8.8287   9.5233
    10.6675  10.8887  11.6509  12.3321  12.7623  12.8042  14.4073  14.6278
    15.5630  17.1023

          k = 0.5833-0.0833 0.9167 ( 17013 PWs)   bands (ev):

   -40.2250 -40.2250 -40.2208 -40.2208 -40.2208 -22.6716  -7.8956  -6.8238
    -6.8102  -6.6818   1.8578   1.9843   2.0719   8.3149   9.0638   9.1357
    10.3474  11.2513  11.8083  12.4245  12.5197  12.8995  14.1880  14.6537
    15.1081  17.3627

          k = 0.5000 0.0000 0.8333 ( 16994 PWs)   bands (ev):

   -40.2250 -40.2250 -40.2208 -40.2208 -40.2208 -22.6716  -7.9100  -6.8202
    -6.8041  -6.6683   1.8090   2.0000   2.0689   8.6953   8.7168   9.2064
    10.3506  11.4361  11.5086  12.3058  12.6990  12.7293  14.2725  14.5766
    15.1999  17.2805

          k =-0.3333-1.0000 0.0000 ( 17010 PWs)   bands (ev):

   -40.2250 -40.2250 -40.2208 -40.2208 -40.2208 -22.6715  -7.8710  -6.8363
    -6.8101  -6.7083   1.8893   2.0123   2.0934   7.9497   8.8628   9.5561
    10.4182  10.9358  12.0274  12.4042  12.8669  13.0079  14.0614  14.3982
    15.3969  17.2550

          k =-0.5000-1.0000 0.0000 ( 16956 PWs)   bands (ev):

   -40.2250 -40.2250 -40.2208 -40.2208 -40.2208 -22.6715  -7.8888  -6.8231
    -6.8231  -6.6803   1.9457   1.9831   1.9831   8.6816   8.6816   9.0819
    10.2742  11.4433  12.0400  12.3032  12.6959  12.6959  14.0174  14.8452
    14.8452  17.5556

     the Fermi energy is     3.1417 ev
     (compare with:     3.1402 eV, computed in scf)

     Writing all to output data dir out/mp-22903.save/
 
     init_run     :      0.34s CPU      0.37s WALL (       1 calls)
     electrons    :     35.86s CPU     36.95s WALL (       1 calls)

     Called by init_run:
     wfcinit      :      0.00s CPU      0.00s WALL (       1 calls)
     potinit      :      0.03s CPU      0.04s WALL (       1 calls)
     hinit0       :      0.03s CPU      0.04s WALL (       1 calls)

     Called by electrons:
     c_bands      :     35.86s CPU     36.94s WALL (       1 calls)
     v_of_rho     :      0.02s CPU      0.02s WALL (       1 calls)

     Called by c_bands:
     init_us_2    :      0.05s CPU      0.06s WALL (      72 calls)
     init_us_2:cp :      0.05s CPU      0.06s WALL (      72 calls)
     cegterg      :     33.10s CPU     33.67s WALL (     108 calls)

     Called by *egterg:
     cdiaghg      :      1.61s CPU      1.65s WALL (    1635 calls)
     h_psi        :     27.92s CPU     28.43s WALL (    1743 calls)
     g_psi        :      0.29s CPU      0.30s WALL (    1563 calls)

     Called by h_psi:
     h_psi:calbec :      0.88s CPU      0.90s WALL (    1743 calls)
     vloc_psi     :     26.00s CPU     26.47s WALL (    1743 calls)
     add_vuspsi   :      0.86s CPU      0.87s WALL (    1743 calls)

     General routines
     calbec       :      0.88s CPU      0.89s WALL (    1743 calls)
     fft          :      0.01s CPU      0.02s WALL (      10 calls)
     fftw         :     22.83s CPU     23.24s WALL (   53716 calls)
 
     Parallel routines
 
     PWSCF        :     36.86s CPU     38.47s WALL

 
   This run was terminated on:  14:40: 8   3Jan2024            

=------------------------------------------------------------------------------=
   JOB DONE.
=------------------------------------------------------------------------------=
