 
             +---------------------------------------------------+
             |                                                   |
             |                   WANNIER90                       |
             |                                                   |
             +---------------------------------------------------+
             |                                                   |
             |        Welcome to the Maximally-Localized         |
             |        Generalized Wannier Functions code         |
             |            http://www.wannier.org                 |
             |                                                   |
             |                                                   |
             |  Wannier90 Developer Group:                       |
             |    Giovanni Pizzi    (EPFL)                       |
             |    Valerio Vitale    (Cambridge)                  |
             |    David Vanderbilt  (Rutgers University)         |
             |    Nicola Marzari    (EPFL)                       |
             |    Ivo Souza         (Universidad del Pais Vasco) |
             |    Arash A. Mostofi  (Imperial College London)    |
             |    Jonathan R. Yates (University of Oxford)       |
             |                                                   |
             |  For the full list of Wannier90 3.x authors,      |
             |  please check the code documentation and the      |
             |  README on the GitHub page of the code            |
             |                                                   |
             |                                                   |
             |  Please cite                                      |
             |                                                   |
             |  [ref] "Wannier90 as a community code:            |
             |        new features and applications",            |
             |        G. Pizzi et al., J. Phys. Cond. Matt. 32,  |
             |        165902 (2020).                             |
             |        http://doi.org/10.1088/1361-648X/ab51ff    |
             |                                                   |
             |  in any publications arising from the use of      |
             |  this code. For the method please cite            |
             |                                                   |
             |  [ref] "Maximally Localized Generalised Wannier   |
             |         Functions for Composite Energy Bands"     |
             |         N. Marzari and D. Vanderbilt              |
             |         Phys. Rev. B 56 12847 (1997)              |
             |                                                   |
             |  [ref] "Maximally Localized Wannier Functions     |
             |         for Entangled Energy Bands"               |
             |         I. Souza, N. Marzari and D. Vanderbilt    |
             |         Phys. Rev. B 65 035109 (2001)             |
             |                                                   |
             |                                                   |
             | Copyright (c) 1996-2020                           |
             |        The Wannier90 Developer Group and          |
             |        individual contributors                    |
             |                                                   |
             |      Release: 3.1.0        5th March    2020      |
             |                                                   |
             | This program is free software; you can            |
             | redistribute it and/or modify it under the terms  |
             | of the GNU General Public License as published by |
             | the Free Software Foundation; either version 2 of |
             | the License, or (at your option) any later version|
             |                                                   |
             | This program is distributed in the hope that it   |
             | will be useful, but WITHOUT ANY WARRANTY; without |
             | even the implied warranty of MERCHANTABILITY or   |
             | FITNESS FOR A PARTICULAR PURPOSE. See the GNU     |
             | General Public License for more details.          |
             |                                                   |
             | You should have received a copy of the GNU General|
             | Public License along with this program; if not,   |
             | write to the Free Software Foundation, Inc.,      |
             | 675 Mass Ave, Cambridge, MA 02139, USA.           |
             |                                                   |
             +---------------------------------------------------+
             |    Execution started on 11Apr2024 at 15:14:15     |
             +---------------------------------------------------+
 
 ******************************************************************************
 * -> Using CODATA 2006 constant values                                       *
 *    (http://physics.nist.gov/cuu/Constants/index.html)                      *
 * -> Using Bohr value from CODATA                                            *
 ******************************************************************************
 

 Running in parallel on  16 CPUs

 
                                    ------
                                    SYSTEM
                                    ------
 
                              Lattice Vectors (Ang)
                    a_1    -4.118100   0.000000   4.118100
                    a_2     0.000000   4.118100   4.118100
                    a_3    -4.118100   4.118100   0.000000
 
                   Unit Cell Volume:     139.67564  (Ang^3)
 
                        Reciprocal-Space Vectors (Ang^-1)
                    b_1    -0.762874  -0.762874   0.762874
                    b_2     0.762874   0.762874   0.762874
                    b_3    -0.762874   0.762874  -0.762874
  
 *----------------------------------------------------------------------------*
 |   Site       Fractional Coordinate          Cartesian Coordinate (Ang)     |
 +----------------------------------------------------------------------------+
 | K    1   0.00000   0.00000   0.00000   |    0.00000   0.00000   0.00000    |
 | Rb   1   0.50000   0.50000   0.50000   |   -4.11810   4.11810   4.11810    |
 | Br   1   0.75000   0.75000   0.75000   |   -6.17715   6.17715   6.17715    |
 | Br   2   0.25000   0.25000   0.25000   |   -2.05905   2.05905   2.05905    |
 *----------------------------------------------------------------------------*
                                ------------
                                K-POINT GRID
                                ------------
  
             Grid size = 10 x 10 x 10      Total points = 1000
  
  
 *---------------------------------- MAIN ------------------------------------*
 |  Number of Wannier Functions               :                 6             |
 |  Number of Objective Wannier Functions     :                 6             |
 |  Number of input Bloch states              :                 6             |
 |  Output verbosity (1=low, 5=high)          :                 1             |
 |  Timing Level (1=low, 5=high)              :                 1             |
 |  Optimisation (0=memory, 3=speed)          :                 3             |
 |  Length Unit                               :               Ang             |
 |  Post-processing setup (write *.nnkp)      :                 F             |
 |  Using Gamma-only branch of algorithms     :                 F             |
 *----------------------------------------------------------------------------*
 *------------------------------- WANNIERISE ---------------------------------*
 |  Total number of iterations                :               500             |
 |  Number of CG steps before reset           :                 5             |
 |  Trial step length for line search         :             2.000             |
 |  Convergence tolerence                     :         0.100E-09             |
 |  Convergence window                        :                -1             |
 |  Iterations between writing output         :                 1             |
 |  Iterations between backing up to disk     :               100             |
 |  Write r^2_nm to file                      :                 F             |
 |  Write xyz WF centres to file              :                 F             |
 |  Write on-site energies <0n|H|0n> to file  :                 F             |
 |  Use guiding centre to control phases      :                 F             |
 |  Use phases for initial projections        :                 F             |
 *----------------------------------------------------------------------------*
 Time to read parameters        0.046 (sec)

 *---------------------------------- K-MESH ----------------------------------*
 +----------------------------------------------------------------------------+
 |                    Distance to Nearest-Neighbour Shells                    |
 |                    ------------------------------------                    |
 |          Shell             Distance (Ang^-1)          Multiplicity         |
 |          -----             -----------------          ------------         |
 |             1                   0.132134                      8            |
 |             2                   0.152575                      6            |
 |             3                   0.215773                     12            |
 |             4                   0.253017                     24            |
 |             5                   0.264267                      8            |
 |             6                   0.305150                      6            |
 |             7                   0.332529                     24            |
 |             8                   0.341168                     24            |
 |             9                   0.373731                     24            |
 |            10                   0.396401                     32            |
 |            11                   0.431547                     12            |
 |            12                   0.451323                     48            |
 |            13                   0.457725                     30            |
 |            14                   0.482484                     24            |
 |            15                   0.500250                     24            |
 |            16                   0.506034                     24            |
 |            17                   0.528535                      8            |
 |            18                   0.544801                     48            |
 |            19                   0.550116                     24            |
 |            20                   0.570883                     48            |
 |            21                   0.585975                     72            |
 |            22                   0.610299                      6            |
 |            23                   0.624440                     24            |
 |            24                   0.629082                     48            |
 |            25                   0.647320                     36            |
 |            26                   0.660669                     56            |
 |            27                   0.665058                     24            |
 |            28                   0.682336                     24            |
 |            29                   0.695012                     72            |
 |            30                   0.699186                     48            |
 |            31                   0.715640                     24            |
 |            32                   0.727736                     48            |
 |            33                   0.747461                     24            |
 |            34                   0.759050                     72            |
 |            35                   0.762874                     30            |
 |            36                   0.777982                     72            |
 +----------------------------------------------------------------------------+
 | The b-vectors are chosen automatically                                     |
 | The following shells are used:   1                                         |
 +----------------------------------------------------------------------------+
 |                        Shell   # Nearest-Neighbours                        |
 |                        -----   --------------------                        |
 |                          1               8                                 |
 +----------------------------------------------------------------------------+
 | Completeness relation is fully satisfied [Eq. (B1), PRB 56, 12847 (1997)]  |
 +----------------------------------------------------------------------------+
 |                  b_k Vectors (Ang^-1) and Weights (Ang^2)                  |
 |                  ----------------------------------------                  |
 |            No.         b_k(x)      b_k(y)      b_k(z)        w_b           |
 |            ---        --------------------------------     --------        |
 |             1        -0.076287    0.076287   -0.076287    21.478505        |
 |             2         0.076287    0.076287    0.076287    21.478505        |
 |             3        -0.076287   -0.076287    0.076287    21.478505        |
 |             4        -0.076287    0.076287    0.076287    21.478505        |
 |             5         0.076287   -0.076287    0.076287    21.478505        |
 |             6        -0.076287   -0.076287   -0.076287    21.478505        |
 |             7         0.076287    0.076287   -0.076287    21.478505        |
 |             8         0.076287   -0.076287   -0.076287    21.478505        |
 +----------------------------------------------------------------------------+
 |                           b_k Directions (Ang^-1)                          |
 |                           -----------------------                          |
 |            No.           x           y           z                         |
 |            ---        --------------------------------                     |
 |             1        -0.076287    0.076287   -0.076287                     |
 |             2         0.076287    0.076287    0.076287                     |
 |             3        -0.076287   -0.076287    0.076287                     |
 |             4        -0.076287    0.076287    0.076287                     |
 +----------------------------------------------------------------------------+
  
 Time to get kmesh              0.353 (sec)
 *============================================================================*
 |                              MEMORY ESTIMATE                               |
 |         Maximum RAM allocated during each phase of the calculation         |
 *============================================================================*
 |                            Wannierise:           13.23 Mb                  |
 |                          plot_wannier:           13.23 Mb                  |
 *----------------------------------------------------------------------------*
  
 Starting a new Wannier90 calculation ...


 Reading overlaps from KRrBr2.mmn    :  Created on 11Apr2024 at 15:13:26

 Reading projections from KRrBr2.amn :  Created on 11Apr2024 at 15:13:16  with SCDM

 Time to read overlaps          0.175 (sec)

 Writing checkpoint file KRrBr2.chk... done

 
 *------------------------------- WANNIERISE ---------------------------------*
 +--------------------------------------------------------------------+<-- CONV
 | Iter  Delta Spread     RMS Gradient      Spread (Ang^2)      Time  |<-- CONV
 +--------------------------------------------------------------------+<-- CONV
 
 ------------------------------------------------------------------------------
 Initial State
  WF centre and spread    1  (  2.056429, -2.057878, -2.061386 )     1.91963013
  WF centre and spread    2  ( -2.056429,  2.060221,  2.056715 )     1.91962984
  WF centre and spread    3  ( -2.060115,  2.060497,  2.060381 )     1.93314168
  WF centre and spread    4  (  2.060115, -2.057603, -2.057719 )     1.93314151
  WF centre and spread    5  (  2.056660, -2.061529, -2.057928 )     1.91962549
  WF centre and spread    6  ( -2.056660,  2.056571,  2.060172 )     1.91962503
  Sum of centres and spreads (  0.000001,  0.000279,  0.000235 )    11.54479368
 
      0     0.115E+02     0.0000000000       11.5447936766       0.00  <-- CONV
        O_D=      0.0042606 O_OD=      0.1639778 O_TOT=     11.5447937 <-- SPRD
 ------------------------------------------------------------------------------
 Cycle:      1
  WF centre and spread    1  (  2.057424, -2.057848, -2.060696 )     1.90510960
  WF centre and spread    2  ( -2.057423,  2.060251,  2.057404 )     1.90511174
  WF centre and spread    3  ( -2.060516,  2.059689,  2.059661 )     1.90781769
  WF centre and spread    4  (  2.060516, -2.058411, -2.058440 )     1.90781422
  WF centre and spread    5  (  2.057683, -2.060874, -2.057997 )     1.90522172
  WF centre and spread    6  ( -2.057683,  2.057226,  2.060103 )     1.90522252
  Sum of centres and spreads (  0.000001,  0.000032,  0.000036 )    11.43629750
 
      1    -0.108E+00     0.1111494116       11.4362974973       0.00  <-- CONV
        O_D=      0.0036396 O_OD=      0.0561026 O_TOT=     11.4362975 <-- SPRD
 Delta: O_D= -0.6210075E-03 O_OD= -0.1078752E+00 O_TOT= -0.1084962E+00 <-- DLTA
 ------------------------------------------------------------------------------
 Cycle:      2
  WF centre and spread    1  (  2.057667, -2.057825, -2.060548 )     1.90253885
  WF centre and spread    2  ( -2.057666,  2.060274,  2.057552 )     1.90260162
  WF centre and spread    3  ( -2.060646,  2.059509,  2.059503 )     1.90392021
  WF centre and spread    4  (  2.060646, -2.058591, -2.058598 )     1.90390078
  WF centre and spread    5  (  2.057933, -2.060727, -2.057996 )     1.90266930
  WF centre and spread    6  ( -2.057932,  2.057372,  2.060103 )     1.90271026
  Sum of centres and spreads (  0.000001,  0.000011,  0.000016 )    11.41834102
 
      2    -0.180E-01     0.0834464578       11.4183410194       0.01  <-- CONV
        O_D=      0.0021012 O_OD=      0.0396845 O_TOT=     11.4183410 <-- SPRD
 Delta: O_D= -0.1538337E-02 O_OD= -0.1641814E-01 O_TOT= -0.1795648E-01 <-- DLTA
 ------------------------------------------------------------------------------
 Cycle:      3
  WF centre and spread    1  (  2.057826, -2.057809, -2.060452 )     1.90107684
  WF centre and spread    2  ( -2.057825,  2.060290,  2.057648 )     1.90108471
  WF centre and spread    3  ( -2.060727,  2.059390,  2.059399 )     1.90183763
  WF centre and spread    4  (  2.060728, -2.058710, -2.058701 )     1.90184789
  WF centre and spread    5  (  2.058092, -2.060628, -2.057993 )     1.90118438
  WF centre and spread    6  ( -2.058092,  2.057471,  2.060107 )     1.90119477
  Sum of centres and spreads (  0.000001,  0.000003,  0.000008 )    11.40822622
 
      3    -0.101E-01     0.1028974085       11.4082262155       0.01  <-- CONV
        O_D=      0.0011987 O_OD=      0.0304722 O_TOT=     11.4082262 <-- SPRD
 Delta: O_D= -0.9025357E-03 O_OD= -0.9212268E-02 O_TOT= -0.1011480E-01 <-- DLTA
 ------------------------------------------------------------------------------
 Cycle:      4
  WF centre and spread    1  (  2.057930, -2.057799, -2.060389 )     1.90023614
  WF centre and spread    2  ( -2.057930,  2.060300,  2.057711 )     1.90024592
  WF centre and spread    3  ( -2.060782,  2.059314,  2.059333 )     1.90068838
  WF centre and spread    4  (  2.060782, -2.058786, -2.058768 )     1.90068398
  WF centre and spread    5  (  2.058196, -2.060563, -2.057991 )     1.90035205
  WF centre and spread    6  ( -2.058195,  2.057536,  2.060109 )     1.90035746
  Sum of centres and spreads (  0.000001,  0.000002,  0.000005 )    11.40256395
 
      4    -0.566E-02     0.0694148901       11.4025639457       0.01  <-- CONV
        O_D=      0.0006696 O_OD=      0.0253391 O_TOT=     11.4025639 <-- SPRD
 Delta: O_D= -0.5291118E-03 O_OD= -0.5133158E-02 O_TOT= -0.5662270E-02 <-- DLTA
 ------------------------------------------------------------------------------
 Cycle:      5
  WF centre and spread    1  (  2.057980, -2.057794, -2.060360 )     1.89988644
  WF centre and spread    2  ( -2.057980,  2.060305,  2.057741 )     1.89988708
  WF centre and spread    3  ( -2.060809,  2.059278,  2.059302 )     1.90018734
  WF centre and spread    4  (  2.060810, -2.058822, -2.058799 )     1.90018612
  WF centre and spread    5  (  2.058245, -2.060532, -2.057990 )     1.90000138
  WF centre and spread    6  ( -2.058244,  2.057568,  2.060110 )     1.90000184
  Sum of centres and spreads (  0.000001,  0.000003,  0.000004 )    11.40015020
 
      5    -0.241E-02     0.0500492878       11.4001502014       0.01  <-- CONV
        O_D=      0.0004747 O_OD=      0.0231202 O_TOT=     11.4001502 <-- SPRD
 Delta: O_D= -0.1948798E-03 O_OD= -0.2218865E-02 O_TOT= -0.2413744E-02 <-- DLTA
 ------------------------------------------------------------------------------
 Cycle:      6
  WF centre and spread    1  (  2.058001, -2.057792, -2.060347 )     1.89974312
  WF centre and spread    2  ( -2.058000,  2.060307,  2.057753 )     1.89974289
  WF centre and spread    3  ( -2.060822,  2.059263,  2.059289 )     1.90001878
  WF centre and spread    4  (  2.060822, -2.058836, -2.058812 )     1.90001845
  WF centre and spread    5  (  2.058265, -2.060518, -2.057989 )     1.89985879
  WF centre and spread    6  ( -2.058265,  2.057581,  2.060111 )     1.89985957
  Sum of centres and spreads (  0.000001,  0.000005,  0.000004 )    11.39924160
 
      6    -0.909E-03     0.0307112646       11.3992415970       0.02  <-- CONV
        O_D=      0.0002511 O_OD=      0.0224352 O_TOT=     11.3992416 <-- SPRD
 Delta: O_D= -0.2236208E-03 O_OD= -0.6849836E-03 O_TOT= -0.9086044E-03 <-- DLTA
 ------------------------------------------------------------------------------
 Cycle:      7
  WF centre and spread    1  (  2.058002, -2.057792, -2.060347 )     1.89969885
  WF centre and spread    2  ( -2.058001,  2.060307,  2.057753 )     1.89969797
  WF centre and spread    3  ( -2.060823,  2.059263,  2.059289 )     1.89997330
  WF centre and spread    4  (  2.060823, -2.058836, -2.058812 )     1.89997373
  WF centre and spread    5  (  2.058266, -2.060518, -2.057989 )     1.89981472
  WF centre and spread    6  ( -2.058266,  2.057581,  2.060111 )     1.89981464
  Sum of centres and spreads (  0.000001,  0.000006,  0.000005 )    11.39897321
 
      7    -0.268E-03     0.0194162809       11.3989732122       0.02  <-- CONV
        O_D=      0.0001673 O_OD=      0.0222506 O_TOT=     11.3989732 <-- SPRD
 Delta: O_D= -0.8374899E-04 O_OD= -0.1846358E-03 O_TOT= -0.2683847E-03 <-- DLTA
 ------------------------------------------------------------------------------
 Cycle:      8
  WF centre and spread    1  (  2.058004, -2.057791, -2.060346 )     1.89966341
  WF centre and spread    2  ( -2.058003,  2.060308,  2.057754 )     1.89966319
  WF centre and spread    3  ( -2.060825,  2.059262,  2.059288 )     1.89993493
  WF centre and spread    4  (  2.060825, -2.058837, -2.058812 )     1.89993462
  WF centre and spread    5  (  2.058268, -2.060517, -2.057989 )     1.89978117
  WF centre and spread    6  ( -2.058268,  2.057582,  2.060111 )     1.89978132
  Sum of centres and spreads (  0.000001,  0.000007,  0.000005 )    11.39875864
 
      8    -0.215E-03     0.0129354036       11.3987586369       0.02  <-- CONV
        O_D=      0.0000850 O_OD=      0.0221184 O_TOT=     11.3987586 <-- SPRD
 Delta: O_D= -0.8238604E-04 O_OD= -0.1321893E-03 O_TOT= -0.2145753E-03 <-- DLTA
 ------------------------------------------------------------------------------
 Cycle:      9
  WF centre and spread    1  (  2.058006, -2.057791, -2.060346 )     1.89964415
  WF centre and spread    2  ( -2.058006,  2.060309,  2.057754 )     1.89964394
  WF centre and spread    3  ( -2.060827,  2.059261,  2.059287 )     1.89990980
  WF centre and spread    4  (  2.060828, -2.058838, -2.058813 )     1.89990967
  WF centre and spread    5  (  2.058270, -2.060516, -2.057988 )     1.89976405
  WF centre and spread    6  ( -2.058270,  2.057583,  2.060112 )     1.89976394
  Sum of centres and spreads (  0.000001,  0.000008,  0.000006 )    11.39863554
 
      9    -0.123E-03     0.0107638190       11.3986355384       0.03  <-- CONV
        O_D=      0.0000433 O_OD=      0.0220369 O_TOT=     11.3986355 <-- SPRD
 Delta: O_D= -0.4160960E-04 O_OD= -0.8148885E-04 O_TOT= -0.1230984E-03 <-- DLTA
 ------------------------------------------------------------------------------
 Cycle:     10
  WF centre and spread    1  (  2.058008, -2.057790, -2.060346 )     1.89963719
  WF centre and spread    2  ( -2.058007,  2.060309,  2.057755 )     1.89963715
  WF centre and spread    3  ( -2.060829,  2.059261,  2.059287 )     1.89989981
  WF centre and spread    4  (  2.060830, -2.058839, -2.058814 )     1.89989955
  WF centre and spread    5  (  2.058271, -2.060516, -2.057988 )     1.89975822
  WF centre and spread    6  ( -2.058271,  2.057584,  2.060112 )     1.89975822
  Sum of centres and spreads (  0.000001,  0.000008,  0.000006 )    11.39859013
 
     10    -0.454E-04     0.0068831881       11.3985901309       0.03  <-- CONV
        O_D=      0.0000276 O_OD=      0.0220072 O_TOT=     11.3985901 <-- SPRD
 Delta: O_D= -0.1575286E-04 O_OD= -0.2965468E-04 O_TOT= -0.4540754E-04 <-- DLTA
 ------------------------------------------------------------------------------
 Cycle:     11
  WF centre and spread    1  (  2.058009, -2.057789, -2.060346 )     1.89963370
  WF centre and spread    2  ( -2.058009,  2.060310,  2.057755 )     1.89963366
  WF centre and spread    3  ( -2.060831,  2.059260,  2.059286 )     1.89989384
  WF centre and spread    4  (  2.060832, -2.058840, -2.058815 )     1.89989355
  WF centre and spread    5  (  2.058272, -2.060516, -2.057987 )     1.89975537
  WF centre and spread    6  ( -2.058272,  2.057584,  2.060113 )     1.89975527
  Sum of centres and spreads (  0.000001,  0.000009,  0.000006 )    11.39856539
 
     11    -0.247E-04     0.0048217827       11.3985653855       0.03  <-- CONV
        O_D=      0.0000189 O_OD=      0.0219911 O_TOT=     11.3985654 <-- SPRD
 Delta: O_D= -0.8649152E-05 O_OD= -0.1609622E-04 O_TOT= -0.2474537E-04 <-- DLTA
 ------------------------------------------------------------------------------
 Cycle:     12
  WF centre and spread    1  (  2.058011, -2.057788, -2.060345 )     1.89963188
  WF centre and spread    2  ( -2.058010,  2.060311,  2.057755 )     1.89963185
  WF centre and spread    3  ( -2.060833,  2.059259,  2.059285 )     1.89989058
  WF centre and spread    4  (  2.060834, -2.058841, -2.058815 )     1.89989027
  WF centre and spread    5  (  2.058274, -2.060515, -2.057986 )     1.89975382
  WF centre and spread    6  ( -2.058274,  2.057584,  2.060114 )     1.89975371
  Sum of centres and spreads (  0.000001,  0.000009,  0.000006 )    11.39855212
 
     12    -0.133E-04     0.0032372232       11.3985521194       0.03  <-- CONV
        O_D=      0.0000136 O_OD=      0.0219833 O_TOT=     11.3985521 <-- SPRD
 Delta: O_D= -0.5375986E-05 O_OD= -0.7890172E-05 O_TOT= -0.1326616E-04 <-- DLTA
 ------------------------------------------------------------------------------
 Cycle:     13
  WF centre and spread    1  (  2.058011, -2.057788, -2.060345 )     1.89963114
  WF centre and spread    2  ( -2.058011,  2.060311,  2.057755 )     1.89963109
  WF centre and spread    3  ( -2.060834,  2.059258,  2.059285 )     1.89988989
  WF centre and spread    4  (  2.060834, -2.058841, -2.058816 )     1.89988959
  WF centre and spread    5  (  2.058274, -2.060515, -2.057986 )     1.89975296
  WF centre and spread    6  ( -2.058274,  2.057584,  2.060114 )     1.89975284
  Sum of centres and spreads (  0.000001,  0.000009,  0.000006 )    11.39854752
 
     13    -0.460E-05     0.0027167323       11.3985475210       0.04  <-- CONV
        O_D=      0.0000123 O_OD=      0.0219799 O_TOT=     11.3985475 <-- SPRD
 Delta: O_D= -0.1242850E-05 O_OD= -0.3355476E-05 O_TOT= -0.4598326E-05 <-- DLTA
 ------------------------------------------------------------------------------
 Cycle:     14
  WF centre and spread    1  (  2.058012, -2.057788, -2.060345 )     1.89963056
  WF centre and spread    2  ( -2.058012,  2.060311,  2.057755 )     1.89963051
  WF centre and spread    3  ( -2.060834,  2.059258,  2.059284 )     1.89988960
  WF centre and spread    4  (  2.060835, -2.058842, -2.058816 )     1.89988927
  WF centre and spread    5  (  2.058275, -2.060515, -2.057986 )     1.89975216
  WF centre and spread    6  ( -2.058275,  2.057585,  2.060114 )     1.89975205
  Sum of centres and spreads (  0.000001,  0.000009,  0.000006 )    11.39854415
 
     14    -0.337E-05     0.0016242620       11.3985441493       0.04  <-- CONV
        O_D=      0.0000114 O_OD=      0.0219775 O_TOT=     11.3985441 <-- SPRD
 Delta: O_D= -0.9603721E-06 O_OD= -0.2411329E-05 O_TOT= -0.3371701E-05 <-- DLTA
 ------------------------------------------------------------------------------
 Cycle:     15
  WF centre and spread    1  (  2.058013, -2.057788, -2.060344 )     1.89963006
  WF centre and spread    2  ( -2.058013,  2.060311,  2.057756 )     1.89963001
  WF centre and spread    3  ( -2.060835,  2.059257,  2.059283 )     1.89988965
  WF centre and spread    4  (  2.060836, -2.058843, -2.058817 )     1.89988933
  WF centre and spread    5  (  2.058276, -2.060514, -2.057986 )     1.89975143
  WF centre and spread    6  ( -2.058276,  2.057585,  2.060114 )     1.89975130
  Sum of centres and spreads (  0.000001,  0.000009,  0.000006 )    11.39854177
 
     15    -0.237E-05     0.0013841699       11.3985417744       0.04  <-- CONV
        O_D=      0.0000109 O_OD=      0.0219756 O_TOT=     11.3985418 <-- SPRD
 Delta: O_D= -0.4865979E-06 O_OD= -0.1888291E-05 O_TOT= -0.2374889E-05 <-- DLTA
 ------------------------------------------------------------------------------
 Cycle:     16
  WF centre and spread    1  (  2.058015, -2.057788, -2.060344 )     1.89962960
  WF centre and spread    2  ( -2.058014,  2.060312,  2.057757 )     1.89962955
  WF centre and spread    3  ( -2.060836,  2.059256,  2.059282 )     1.89988999
  WF centre and spread    4  (  2.060837, -2.058844, -2.058818 )     1.89988967
  WF centre and spread    5  (  2.058277, -2.060514, -2.057986 )     1.89975075
  WF centre and spread    6  ( -2.058277,  2.057586,  2.060114 )     1.89975063
  Sum of centres and spreads (  0.000001,  0.000008,  0.000006 )    11.39854020
 
     16    -0.157E-05     0.0011517805       11.3985402040       0.04  <-- CONV
        O_D=      0.0000107 O_OD=      0.0219742 O_TOT=     11.3985402 <-- SPRD
 Delta: O_D= -0.1861335E-06 O_OD= -0.1384353E-05 O_TOT= -0.1570486E-05 <-- DLTA
 ------------------------------------------------------------------------------
 Cycle:     17
  WF centre and spread    1  (  2.058016, -2.057787, -2.060343 )     1.89962916
  WF centre and spread    2  ( -2.058016,  2.060312,  2.057757 )     1.89962910
  WF centre and spread    3  ( -2.060837,  2.059255,  2.059281 )     1.89989051
  WF centre and spread    4  (  2.060838, -2.058845, -2.058819 )     1.89989019
  WF centre and spread    5  (  2.058279, -2.060513, -2.057985 )     1.89975014
  WF centre and spread    6  ( -2.058279,  2.057587,  2.060114 )     1.89975001
  Sum of centres and spreads (  0.000001,  0.000008,  0.000006 )    11.39853912
 
     17    -0.109E-05     0.0009269163       11.3985391154       0.05  <-- CONV
        O_D=      0.0000106 O_OD=      0.0219732 O_TOT=     11.3985391 <-- SPRD
 Delta: O_D= -0.4575924E-07 O_OD= -0.1042844E-05 O_TOT= -0.1088603E-05 <-- DLTA
 ------------------------------------------------------------------------------
 Cycle:     18
  WF centre and spread    1  (  2.058017, -2.057787, -2.060342 )     1.89962890
  WF centre and spread    2  ( -2.058017,  2.060312,  2.057758 )     1.89962884
  WF centre and spread    3  ( -2.060838,  2.059254,  2.059281 )     1.89989088
  WF centre and spread    4  (  2.060838, -2.058846, -2.058820 )     1.89989056
  WF centre and spread    5  (  2.058280, -2.060512, -2.057985 )     1.89974979
  WF centre and spread    6  ( -2.058280,  2.057587,  2.060114 )     1.89974966
  Sum of centres and spreads (  0.000001,  0.000008,  0.000006 )    11.39853863
 
     18    -0.481E-06     0.0006969296       11.3985386348       0.05  <-- CONV
        O_D=      0.0000106 O_OD=      0.0219727 O_TOT=     11.3985386 <-- SPRD
 Delta: O_D= -0.5170295E-07 O_OD= -0.4288618E-06 O_TOT= -0.4805647E-06 <-- DLTA
 ------------------------------------------------------------------------------
 Cycle:     19
  WF centre and spread    1  (  2.058017, -2.057787, -2.060342 )     1.89962884
  WF centre and spread    2  ( -2.058017,  2.060312,  2.057758 )     1.89962878
  WF centre and spread    3  ( -2.060838,  2.059254,  2.059281 )     1.89989088
  WF centre and spread    4  (  2.060838, -2.058846, -2.058820 )     1.89989057
  WF centre and spread    5  (  2.058280, -2.060512, -2.057985 )     1.89974972
  WF centre and spread    6  ( -2.058280,  2.057588,  2.060114 )     1.89974959
  Sum of centres and spreads (  0.000001,  0.000008,  0.000006 )    11.39853838
 
     19    -0.255E-06     0.0006035358       11.3985383793       0.05  <-- CONV
        O_D=      0.0000105 O_OD=      0.0219726 O_TOT=     11.3985384 <-- SPRD
 Delta: O_D= -0.6369700E-07 O_OD= -0.1917705E-06 O_TOT= -0.2554675E-06 <-- DLTA
 ------------------------------------------------------------------------------
 Cycle:     20
  WF centre and spread    1  (  2.058018, -2.057787, -2.060342 )     1.89962874
  WF centre and spread    2  ( -2.058017,  2.060312,  2.057758 )     1.89962868
  WF centre and spread    3  ( -2.060838,  2.059253,  2.059280 )     1.89989098
  WF centre and spread    4  (  2.060838, -2.058846, -2.058820 )     1.89989066
  WF centre and spread    5  (  2.058280, -2.060512, -2.057985 )     1.89974959
  WF centre and spread    6  ( -2.058280,  2.057588,  2.060114 )     1.89974947
  Sum of centres and spreads (  0.000001,  0.000008,  0.000006 )    11.39853812
 
     20    -0.256E-06     0.0004295136       11.3985381232       0.06  <-- CONV
        O_D=      0.0000105 O_OD=      0.0219724 O_TOT=     11.3985381 <-- SPRD
 Delta: O_D= -0.5775329E-07 O_OD= -0.1983930E-06 O_TOT= -0.2561463E-06 <-- DLTA
 ------------------------------------------------------------------------------
 Cycle:     21
  WF centre and spread    1  (  2.058018, -2.057787, -2.060342 )     1.89962865
  WF centre and spread    2  ( -2.058018,  2.060312,  2.057759 )     1.89962859
  WF centre and spread    3  ( -2.060838,  2.059253,  2.059280 )     1.89989111
  WF centre and spread    4  (  2.060839, -2.058847, -2.058820 )     1.89989079
  WF centre and spread    5  (  2.058281, -2.060511, -2.057985 )     1.89974947
  WF centre and spread    6  ( -2.058281,  2.057588,  2.060114 )     1.89974935
  Sum of centres and spreads (  0.000001,  0.000008,  0.000005 )    11.39853796
 
     21    -0.160E-06     0.0003628406       11.3985379634       0.06  <-- CONV
        O_D=      0.0000105 O_OD=      0.0219722 O_TOT=     11.3985380 <-- SPRD
 Delta: O_D= -0.1496579E-07 O_OD= -0.1447859E-06 O_TOT= -0.1597517E-06 <-- DLTA
 ------------------------------------------------------------------------------
 Cycle:     22
  WF centre and spread    1  (  2.058019, -2.057787, -2.060341 )     1.89962859
  WF centre and spread    2  ( -2.058018,  2.060312,  2.057759 )     1.89962853
  WF centre and spread    3  ( -2.060838,  2.059253,  2.059280 )     1.89989123
  WF centre and spread    4  (  2.060839, -2.058847, -2.058821 )     1.89989091
  WF centre and spread    5  (  2.058281, -2.060511, -2.057985 )     1.89974936
  WF centre and spread    6  ( -2.058281,  2.057589,  2.060114 )     1.89974924
  Sum of centres and spreads (  0.000001,  0.000008,  0.000005 )    11.39853786
 
     22    -0.102E-06     0.0002980535       11.3985378615       0.06  <-- CONV
        O_D=      0.0000105 O_OD=      0.0219721 O_TOT=     11.3985379 <-- SPRD
 Delta: O_D= -0.1028051E-08 O_OD= -0.1009393E-06 O_TOT= -0.1019674E-06 <-- DLTA
 ------------------------------------------------------------------------------
 Cycle:     23
  WF centre and spread    1  (  2.058019, -2.057787, -2.060341 )     1.89962854
  WF centre and spread    2  ( -2.058018,  2.060312,  2.057759 )     1.89962848
  WF centre and spread    3  ( -2.060839,  2.059252,  2.059279 )     1.89989135
  WF centre and spread    4  (  2.060839, -2.058847, -2.058821 )     1.89989103
  WF centre and spread    5  (  2.058282, -2.060511, -2.057985 )     1.89974925
  WF centre and spread    6  ( -2.058282,  2.057589,  2.060114 )     1.89974913
  Sum of centres and spreads (  0.000001,  0.000008,  0.000005 )    11.39853778
 
     23    -0.774E-07     0.0002425667       11.3985377841       0.06  <-- CONV
        O_D=      0.0000105 O_OD=      0.0219720 O_TOT=     11.3985378 <-- SPRD
 Delta: O_D=  0.2316539E-08 O_OD= -0.7972215E-07 O_TOT= -0.7740561E-07 <-- DLTA
 ------------------------------------------------------------------------------
 Cycle:     24
  WF centre and spread    1  (  2.058019, -2.057787, -2.060341 )     1.89962851
  WF centre and spread    2  ( -2.058019,  2.060312,  2.057759 )     1.89962845
  WF centre and spread    3  ( -2.060839,  2.059252,  2.059279 )     1.89989144
  WF centre and spread    4  (  2.060839, -2.058848, -2.058821 )     1.89989112
  WF centre and spread    5  (  2.058282, -2.060510, -2.057985 )     1.89974916
  WF centre and spread    6  ( -2.058282,  2.057589,  2.060114 )     1.89974904
  Sum of centres and spreads (  0.000001,  0.000008,  0.000005 )    11.39853774
 
     24    -0.484E-07     0.0002042483       11.3985377356       0.07  <-- CONV
        O_D=      0.0000105 O_OD=      0.0219720 O_TOT=     11.3985377 <-- SPRD
 Delta: O_D= -0.3533608E-08 O_OD= -0.4490376E-07 O_TOT= -0.4843737E-07 <-- DLTA
 ------------------------------------------------------------------------------
 Cycle:     25
  WF centre and spread    1  (  2.058019, -2.057787, -2.060341 )     1.89962851
  WF centre and spread    2  ( -2.058019,  2.060312,  2.057759 )     1.89962845
  WF centre and spread    3  ( -2.060839,  2.059252,  2.059279 )     1.89989144
  WF centre and spread    4  (  2.060839, -2.058848, -2.058821 )     1.89989113
  WF centre and spread    5  (  2.058282, -2.060510, -2.057985 )     1.89974915
  WF centre and spread    6  ( -2.058282,  2.057589,  2.060114 )     1.89974903
  Sum of centres and spreads (  0.000001,  0.000008,  0.000005 )    11.39853771
 
     25    -0.282E-07     0.0002124433       11.3985377074       0.07  <-- CONV
        O_D=      0.0000104 O_OD=      0.0219720 O_TOT=     11.3985377 <-- SPRD
 Delta: O_D= -0.7579433E-08 O_OD= -0.2066740E-07 O_TOT= -0.2824683E-07 <-- DLTA
 ------------------------------------------------------------------------------
 Cycle:     26
  WF centre and spread    1  (  2.058019, -2.057787, -2.060341 )     1.89962851
  WF centre and spread    2  ( -2.058019,  2.060312,  2.057760 )     1.89962845
  WF centre and spread    3  ( -2.060839,  2.059252,  2.059279 )     1.89989146
  WF centre and spread    4  (  2.060839, -2.058848, -2.058821 )     1.89989115
  WF centre and spread    5  (  2.058282, -2.060510, -2.057985 )     1.89974912
  WF centre and spread    6  ( -2.058282,  2.057589,  2.060114 )     1.89974900
  Sum of centres and spreads (  0.000001,  0.000008,  0.000005 )    11.39853769
 
     26    -0.204E-07     0.0001275820       11.3985376870       0.07  <-- CONV
        O_D=      0.0000104 O_OD=      0.0219719 O_TOT=     11.3985377 <-- SPRD
 Delta: O_D= -0.4698146E-08 O_OD= -0.1572373E-07 O_TOT= -0.2042188E-07 <-- DLTA
 ------------------------------------------------------------------------------
 Cycle:     27
  WF centre and spread    1  (  2.058020, -2.057787, -2.060341 )     1.89962850
  WF centre and spread    2  ( -2.058019,  2.060312,  2.057760 )     1.89962844
  WF centre and spread    3  ( -2.060839,  2.059252,  2.059279 )     1.89989150
  WF centre and spread    4  (  2.060839, -2.058848, -2.058822 )     1.89989118
  WF centre and spread    5  (  2.058282, -2.060510, -2.057985 )     1.89974909
  WF centre and spread    6  ( -2.058282,  2.057589,  2.060114 )     1.89974896
  Sum of centres and spreads (  0.000001,  0.000008,  0.000005 )    11.39853767
 
     27    -0.135E-07     0.0001086484       11.3985376734       0.07  <-- CONV
        O_D=      0.0000104 O_OD=      0.0219719 O_TOT=     11.3985377 <-- SPRD
 Delta: O_D= -0.1214141E-08 O_OD= -0.1233229E-07 O_TOT= -0.1354644E-07 <-- DLTA
 ------------------------------------------------------------------------------
 Cycle:     28
  WF centre and spread    1  (  2.058020, -2.057787, -2.060341 )     1.89962849
  WF centre and spread    2  ( -2.058019,  2.060312,  2.057760 )     1.89962843
  WF centre and spread    3  ( -2.060839,  2.059252,  2.059279 )     1.89989155
  WF centre and spread    4  (  2.060839, -2.058848, -2.058822 )     1.89989123
  WF centre and spread    5  (  2.058282, -2.060510, -2.057985 )     1.89974905
  WF centre and spread    6  ( -2.058282,  2.057589,  2.060114 )     1.89974892
  Sum of centres and spreads (  0.000001,  0.000008,  0.000005 )    11.39853766
 
     28    -0.105E-07     0.0000910208       11.3985376629       0.08  <-- CONV
        O_D=      0.0000104 O_OD=      0.0219719 O_TOT=     11.3985377 <-- SPRD
 Delta: O_D= -0.1003870E-09 O_OD= -0.1037134E-07 O_TOT= -0.1047172E-07 <-- DLTA
 ------------------------------------------------------------------------------
 Cycle:     29
  WF centre and spread    1  (  2.058020, -2.057787, -2.060341 )     1.89962846
  WF centre and spread    2  ( -2.058019,  2.060312,  2.057760 )     1.89962840
  WF centre and spread    3  ( -2.060839,  2.059251,  2.059279 )     1.89989163
  WF centre and spread    4  (  2.060839, -2.058848, -2.058822 )     1.89989131
  WF centre and spread    5  (  2.058282, -2.060510, -2.057985 )     1.89974899
  WF centre and spread    6  ( -2.058282,  2.057589,  2.060114 )     1.89974886
  Sum of centres and spreads (  0.000001,  0.000008,  0.000005 )    11.39853765
 
     29    -0.927E-08     0.0000710383       11.3985376537       0.08  <-- CONV
        O_D=      0.0000104 O_OD=      0.0219719 O_TOT=     11.3985377 <-- SPRD
 Delta: O_D=  0.1950987E-08 O_OD= -0.1122184E-07 O_TOT= -0.9270851E-08 <-- DLTA
 ------------------------------------------------------------------------------
 Cycle:     30
  WF centre and spread    1  (  2.058020, -2.057787, -2.060340 )     1.89962844
  WF centre and spread    2  ( -2.058019,  2.060312,  2.057760 )     1.89962838
  WF centre and spread    3  ( -2.060839,  2.059251,  2.059279 )     1.89989170
  WF centre and spread    4  (  2.060840, -2.058848, -2.058822 )     1.89989138
  WF centre and spread    5  (  2.058283, -2.060510, -2.057985 )     1.89974893
  WF centre and spread    6  ( -2.058282,  2.057590,  2.060114 )     1.89974881
  Sum of centres and spreads (  0.000001,  0.000008,  0.000005 )    11.39853765
 
     30    -0.572E-08     0.0000902543       11.3985376479       0.08  <-- CONV
        O_D=      0.0000104 O_OD=      0.0219719 O_TOT=     11.3985376 <-- SPRD
 Delta: O_D=  0.1036265E-08 O_OD= -0.6753425E-08 O_TOT= -0.5717160E-08 <-- DLTA
 ------------------------------------------------------------------------------
 Cycle:     31
  WF centre and spread    1  (  2.058020, -2.057787, -2.060340 )     1.89962844
  WF centre and spread    2  ( -2.058019,  2.060312,  2.057760 )     1.89962838
  WF centre and spread    3  ( -2.060839,  2.059251,  2.059279 )     1.89989170
  WF centre and spread    4  (  2.060840, -2.058848, -2.058822 )     1.89989138
  WF centre and spread    5  (  2.058283, -2.060510, -2.057985 )     1.89974894
  WF centre and spread    6  ( -2.058282,  2.057590,  2.060114 )     1.89974881
  Sum of centres and spreads (  0.000001,  0.000008,  0.000005 )    11.39853764
 
     31    -0.841E-08     0.0000913348       11.3985376395       0.09  <-- CONV
        O_D=      0.0000104 O_OD=      0.0219719 O_TOT=     11.3985376 <-- SPRD
 Delta: O_D= -0.2155623E-08 O_OD= -0.6254974E-08 O_TOT= -0.8410597E-08 <-- DLTA
 ------------------------------------------------------------------------------
 Cycle:     32
  WF centre and spread    1  (  2.058020, -2.057787, -2.060340 )     1.89962844
  WF centre and spread    2  ( -2.058019,  2.060312,  2.057760 )     1.89962838
  WF centre and spread    3  ( -2.060839,  2.059251,  2.059279 )     1.89989169
  WF centre and spread    4  (  2.060840, -2.058848, -2.058822 )     1.89989137
  WF centre and spread    5  (  2.058283, -2.060510, -2.057985 )     1.89974894
  WF centre and spread    6  ( -2.058282,  2.057590,  2.060114 )     1.89974881
  Sum of centres and spreads (  0.000001,  0.000008,  0.000005 )    11.39853764
 
     32    -0.419E-08     0.0000736764       11.3985376353       0.09  <-- CONV
        O_D=      0.0000104 O_OD=      0.0219719 O_TOT=     11.3985376 <-- SPRD
 Delta: O_D= -0.9565799E-09 O_OD= -0.3236299E-08 O_TOT= -0.4192879E-08 <-- DLTA
 ------------------------------------------------------------------------------
 Cycle:     33
  WF centre and spread    1  (  2.058020, -2.057787, -2.060340 )     1.89962844
  WF centre and spread    2  ( -2.058019,  2.060312,  2.057760 )     1.89962838
  WF centre and spread    3  ( -2.060839,  2.059251,  2.059279 )     1.89989169
  WF centre and spread    4  (  2.060840, -2.058848, -2.058822 )     1.89989137
  WF centre and spread    5  (  2.058283, -2.060510, -2.057985 )     1.89974894
  WF centre and spread    6  ( -2.058282,  2.057590,  2.060114 )     1.89974881
  Sum of centres and spreads (  0.000001,  0.000008,  0.000005 )    11.39853764
 
     33    -0.752E-11     0.0000530146       11.3985376353       0.09  <-- CONV
        O_D=      0.0000104 O_OD=      0.0219719 O_TOT=     11.3985376 <-- SPRD
 Delta: O_D= -0.1419615E-11 O_OD= -0.6097688E-11 O_TOT= -0.7519319E-11 <-- DLTA
 ------------------------------------------------------------------------------
 Cycle:     34
  WF centre and spread    1  (  2.058020, -2.057787, -2.060340 )     1.89962844
  WF centre and spread    2  ( -2.058019,  2.060312,  2.057760 )     1.89962838
  WF centre and spread    3  ( -2.060839,  2.059251,  2.059279 )     1.89989169
  WF centre and spread    4  (  2.060840, -2.058848, -2.058822 )     1.89989137
  WF centre and spread    5  (  2.058283, -2.060510, -2.057985 )     1.89974894
  WF centre and spread    6  ( -2.058282,  2.057590,  2.060114 )     1.89974881
  Sum of centres and spreads (  0.000001,  0.000008,  0.000005 )    11.39853763
 
     34    -0.344E-08     0.0000529680       11.3985376319       0.09  <-- CONV
        O_D=      0.0000104 O_OD=      0.0219719 O_TOT=     11.3985376 <-- SPRD
 Delta: O_D= -0.3418984E-09 O_OD= -0.3096079E-08 O_TOT= -0.3437975E-08 <-- DLTA
 ------------------------------------------------------------------------------
 Cycle:     35
  WF centre and spread    1  (  2.058020, -2.057787, -2.060340 )     1.89962844
  WF centre and spread    2  ( -2.058019,  2.060312,  2.057760 )     1.89962838
  WF centre and spread    3  ( -2.060839,  2.059251,  2.059279 )     1.89989169
  WF centre and spread    4  (  2.060840, -2.058848, -2.058822 )     1.89989137
  WF centre and spread    5  (  2.058283, -2.060510, -2.057985 )     1.89974894
  WF centre and spread    6  ( -2.058282,  2.057590,  2.060114 )     1.89974881
  Sum of centres and spreads (  0.000001,  0.000008,  0.000005 )    11.39853763
 
     35    -0.308E-08     0.0000492194       11.3985376288       0.10  <-- CONV
        O_D=      0.0000104 O_OD=      0.0219719 O_TOT=     11.3985376 <-- SPRD
 Delta: O_D=  0.3508964E-09 O_OD= -0.3428161E-08 O_TOT= -0.3077265E-08 <-- DLTA
 ------------------------------------------------------------------------------
 Cycle:     36
  WF centre and spread    1  (  2.058020, -2.057787, -2.060340 )     1.89962844
  WF centre and spread    2  ( -2.058020,  2.060312,  2.057760 )     1.89962838
  WF centre and spread    3  ( -2.060839,  2.059251,  2.059279 )     1.89989169
  WF centre and spread    4  (  2.060840, -2.058848, -2.058822 )     1.89989137
  WF centre and spread    5  (  2.058283, -2.060510, -2.057985 )     1.89974894
  WF centre and spread    6  ( -2.058282,  2.057590,  2.060114 )     1.89974881
  Sum of centres and spreads (  0.000001,  0.000008,  0.000005 )    11.39853762
 
     36    -0.429E-08     0.0000737582       11.3985376245       0.10  <-- CONV
        O_D=      0.0000104 O_OD=      0.0219719 O_TOT=     11.3985376 <-- SPRD
 Delta: O_D=  0.2086675E-08 O_OD= -0.6381179E-08 O_TOT= -0.4294506E-08 <-- DLTA
 ------------------------------------------------------------------------------
 Cycle:     37
  WF centre and spread    1  (  2.058020, -2.057787, -2.060340 )     1.89962844
  WF centre and spread    2  ( -2.058020,  2.060312,  2.057760 )     1.89962838
  WF centre and spread    3  ( -2.060839,  2.059251,  2.059279 )     1.89989168
  WF centre and spread    4  (  2.060840, -2.058848, -2.058822 )     1.89989136
  WF centre and spread    5  (  2.058283, -2.060510, -2.057985 )     1.89974893
  WF centre and spread    6  ( -2.058282,  2.057590,  2.060114 )     1.89974881
  Sum of centres and spreads (  0.000001,  0.000008,  0.000005 )    11.39853762
 
     37    -0.681E-08     0.0000950122       11.3985376177       0.10  <-- CONV
        O_D=      0.0000104 O_OD=      0.0219719 O_TOT=     11.3985376 <-- SPRD
 Delta: O_D= -0.1655142E-08 O_OD= -0.5153855E-08 O_TOT= -0.6808996E-08 <-- DLTA
 ------------------------------------------------------------------------------
 Cycle:     38
  WF centre and spread    1  (  2.058020, -2.057787, -2.060340 )     1.89962845
  WF centre and spread    2  ( -2.058020,  2.060312,  2.057760 )     1.89962839
  WF centre and spread    3  ( -2.060839,  2.059251,  2.059279 )     1.89989168
  WF centre and spread    4  (  2.060840, -2.058848, -2.058822 )     1.89989136
  WF centre and spread    5  (  2.058283, -2.060510, -2.057985 )     1.89974893
  WF centre and spread    6  ( -2.058282,  2.057590,  2.060114 )     1.89974881
  Sum of centres and spreads (  0.000001,  0.000008,  0.000005 )    11.39853761
 
     38    -0.321E-08     0.0000562939       11.3985376145       0.10  <-- CONV
        O_D=      0.0000104 O_OD=      0.0219719 O_TOT=     11.3985376 <-- SPRD
 Delta: O_D= -0.7199764E-09 O_OD= -0.2488211E-08 O_TOT= -0.3208186E-08 <-- DLTA
 ------------------------------------------------------------------------------
 Cycle:     39
  WF centre and spread    1  (  2.058020, -2.057787, -2.060340 )     1.89962845
  WF centre and spread    2  ( -2.058020,  2.060312,  2.057760 )     1.89962839
  WF centre and spread    3  ( -2.060839,  2.059251,  2.059279 )     1.89989168
  WF centre and spread    4  (  2.060840, -2.058848, -2.058822 )     1.89989136
  WF centre and spread    5  (  2.058283, -2.060510, -2.057985 )     1.89974893
  WF centre and spread    6  ( -2.058282,  2.057590,  2.060114 )     1.89974881
  Sum of centres and spreads (  0.000001,  0.000008,  0.000005 )    11.39853761
 
     39    -0.694E-11     0.0000480807       11.3985376145       0.11  <-- CONV
        O_D=      0.0000104 O_OD=      0.0219719 O_TOT=     11.3985376 <-- SPRD
 Delta: O_D= -0.1061912E-11 O_OD= -0.5879720E-11 O_TOT= -0.6942003E-11 <-- DLTA
 ------------------------------------------------------------------------------
 Cycle:     40
  WF centre and spread    1  (  2.058020, -2.057787, -2.060340 )     1.89962845
  WF centre and spread    2  ( -2.058020,  2.060312,  2.057760 )     1.89962839
  WF centre and spread    3  ( -2.060839,  2.059251,  2.059279 )     1.89989168
  WF centre and spread    4  (  2.060840, -2.058848, -2.058822 )     1.89989136
  WF centre and spread    5  (  2.058283, -2.060510, -2.057985 )     1.89974893
  WF centre and spread    6  ( -2.058282,  2.057590,  2.060114 )     1.89974880
  Sum of centres and spreads (  0.000001,  0.000008,  0.000005 )    11.39853761
 
     40    -0.392E-08     0.0000480519       11.3985376106       0.11  <-- CONV
        O_D=      0.0000104 O_OD=      0.0219719 O_TOT=     11.3985376 <-- SPRD
 Delta: O_D=  0.2937494E-09 O_OD= -0.4218574E-08 O_TOT= -0.3924825E-08 <-- DLTA
 ------------------------------------------------------------------------------
 Cycle:     41
  WF centre and spread    1  (  2.058020, -2.057787, -2.060340 )     1.89962845
  WF centre and spread    2  ( -2.058020,  2.060312,  2.057760 )     1.89962839
  WF centre and spread    3  ( -2.060839,  2.059251,  2.059279 )     1.89989168
  WF centre and spread    4  (  2.060840, -2.058848, -2.058822 )     1.89989137
  WF centre and spread    5  (  2.058283, -2.060510, -2.057985 )     1.89974892
  WF centre and spread    6  ( -2.058282,  2.057590,  2.060115 )     1.89974880
  Sum of centres and spreads (  0.000001,  0.000008,  0.000005 )    11.39853761
 
     41    -0.220E-08     0.0000594068       11.3985376084       0.11  <-- CONV
        O_D=      0.0000104 O_OD=      0.0219719 O_TOT=     11.3985376 <-- SPRD
 Delta: O_D=  0.8326686E-09 O_OD= -0.3035520E-08 O_TOT= -0.2202851E-08 <-- DLTA
 ------------------------------------------------------------------------------
 Cycle:     42
  WF centre and spread    1  (  2.058020, -2.057787, -2.060340 )     1.89962846
  WF centre and spread    2  ( -2.058020,  2.060312,  2.057760 )     1.89962840
  WF centre and spread    3  ( -2.060839,  2.059251,  2.059279 )     1.89989169
  WF centre and spread    4  (  2.060840, -2.058848, -2.058822 )     1.89989137
  WF centre and spread    5  (  2.058283, -2.060510, -2.057985 )     1.89974891
  WF centre and spread    6  ( -2.058282,  2.057590,  2.060115 )     1.89974878
  Sum of centres and spreads (  0.000001,  0.000008,  0.000005 )    11.39853760
 
     42    -0.358E-08     0.0000828413       11.3985376048       0.11  <-- CONV
        O_D=      0.0000104 O_OD=      0.0219719 O_TOT=     11.3985376 <-- SPRD
 Delta: O_D=  0.1773265E-08 O_OD= -0.5352852E-08 O_TOT= -0.3579588E-08 <-- DLTA
 ------------------------------------------------------------------------------
 Cycle:     43
  WF centre and spread    1  (  2.058020, -2.057787, -2.060340 )     1.89962845
  WF centre and spread    2  ( -2.058020,  2.060312,  2.057760 )     1.89962839
  WF centre and spread    3  ( -2.060839,  2.059251,  2.059279 )     1.89989169
  WF centre and spread    4  (  2.060840, -2.058848, -2.058822 )     1.89989137
  WF centre and spread    5  (  2.058283, -2.060510, -2.057985 )     1.89974891
  WF centre and spread    6  ( -2.058282,  2.057590,  2.060115 )     1.89974878
  Sum of centres and spreads (  0.000001,  0.000008,  0.000005 )    11.39853760
 
     43    -0.713E-08     0.0000919937       11.3985375977       0.12  <-- CONV
        O_D=      0.0000104 O_OD=      0.0219719 O_TOT=     11.3985376 <-- SPRD
 Delta: O_D= -0.1567304E-08 O_OD= -0.5559504E-08 O_TOT= -0.7126806E-08 <-- DLTA
 ------------------------------------------------------------------------------
 Cycle:     44
  WF centre and spread    1  (  2.058020, -2.057787, -2.060340 )     1.89962845
  WF centre and spread    2  ( -2.058020,  2.060312,  2.057760 )     1.89962839
  WF centre and spread    3  ( -2.060839,  2.059251,  2.059279 )     1.89989169
  WF centre and spread    4  (  2.060840, -2.058848, -2.058822 )     1.89989138
  WF centre and spread    5  (  2.058283, -2.060510, -2.057985 )     1.89974890
  WF centre and spread    6  ( -2.058282,  2.057590,  2.060115 )     1.89974878
  Sum of centres and spreads (  0.000001,  0.000008,  0.000005 )    11.39853759
 
     44    -0.306E-08     0.0000517425       11.3985375946       0.12  <-- CONV
        O_D=      0.0000104 O_OD=      0.0219719 O_TOT=     11.3985376 <-- SPRD
 Delta: O_D= -0.1809087E-09 O_OD= -0.2879280E-08 O_TOT= -0.3060189E-08 <-- DLTA
 ------------------------------------------------------------------------------
 Cycle:     45
  WF centre and spread    1  (  2.058020, -2.057787, -2.060340 )     1.89962843
  WF centre and spread    2  ( -2.058020,  2.060312,  2.057760 )     1.89962837
  WF centre and spread    3  ( -2.060839,  2.059251,  2.059279 )     1.89989171
  WF centre and spread    4  (  2.060840, -2.058848, -2.058822 )     1.89989139
  WF centre and spread    5  (  2.058283, -2.060510, -2.057985 )     1.89974890
  WF centre and spread    6  ( -2.058282,  2.057590,  2.060115 )     1.89974878
  Sum of centres and spreads (  0.000001,  0.000008,  0.000005 )    11.39853759
 
     45    -0.666E-08     0.0000697604       11.3985375879       0.12  <-- CONV
        O_D=      0.0000104 O_OD=      0.0219718 O_TOT=     11.3985376 <-- SPRD
 Delta: O_D=  0.4335738E-09 O_OD= -0.7096557E-08 O_TOT= -0.6662985E-08 <-- DLTA
 ------------------------------------------------------------------------------
 Cycle:     46
  WF centre and spread    1  (  2.058020, -2.057787, -2.060340 )     1.89962843
  WF centre and spread    2  ( -2.058020,  2.060312,  2.057760 )     1.89962837
  WF centre and spread    3  ( -2.060839,  2.059251,  2.059279 )     1.89989171
  WF centre and spread    4  (  2.060840, -2.058848, -2.058822 )     1.89989139
  WF centre and spread    5  (  2.058283, -2.060510, -2.057985 )     1.89974890
  WF centre and spread    6  ( -2.058282,  2.057590,  2.060115 )     1.89974878
  Sum of centres and spreads (  0.000001,  0.000008,  0.000005 )    11.39853759
 
     46    -0.685E-11     0.0000564916       11.3985375879       0.12  <-- CONV
        O_D=      0.0000104 O_OD=      0.0219718 O_TOT=     11.3985376 <-- SPRD
 Delta: O_D= -0.7479980E-13 O_OD= -0.6777193E-11 O_TOT= -0.6851408E-11 <-- DLTA
 ------------------------------------------------------------------------------
 Cycle:     47
  WF centre and spread    1  (  2.058020, -2.057787, -2.060340 )     1.89962844
  WF centre and spread    2  ( -2.058020,  2.060312,  2.057760 )     1.89962838
  WF centre and spread    3  ( -2.060839,  2.059251,  2.059279 )     1.89989169
  WF centre and spread    4  (  2.060840, -2.058848, -2.058822 )     1.89989137
  WF centre and spread    5  (  2.058283, -2.060510, -2.057985 )     1.89974890
  WF centre and spread    6  ( -2.058282,  2.057590,  2.060115 )     1.89974878
  Sum of centres and spreads (  0.000001,  0.000008,  0.000005 )    11.39853758
 
     47    -0.830E-08     0.0000564747       11.3985375796       0.13  <-- CONV
        O_D=      0.0000104 O_OD=      0.0219718 O_TOT=     11.3985376 <-- SPRD
 Delta: O_D= -0.3203442E-09 O_OD= -0.7975494E-08 O_TOT= -0.8295839E-08 <-- DLTA
 ------------------------------------------------------------------------------
 Cycle:     48
  WF centre and spread    1  (  2.058020, -2.057787, -2.060340 )     1.89962846
  WF centre and spread    2  ( -2.058020,  2.060312,  2.057760 )     1.89962840
  WF centre and spread    3  ( -2.060839,  2.059251,  2.059279 )     1.89989167
  WF centre and spread    4  (  2.060840, -2.058848, -2.058822 )     1.89989135
  WF centre and spread    5  (  2.058283, -2.060510, -2.057985 )     1.89974891
  WF centre and spread    6  ( -2.058282,  2.057590,  2.060115 )     1.89974879
  Sum of centres and spreads (  0.000001,  0.000008,  0.000005 )    11.39853757
 
     48    -0.668E-08     0.0000763242       11.3985375730       0.13  <-- CONV
        O_D=      0.0000104 O_OD=      0.0219718 O_TOT=     11.3985376 <-- SPRD
 Delta: O_D=  0.1449705E-08 O_OD= -0.8127912E-08 O_TOT= -0.6678205E-08 <-- DLTA
 ------------------------------------------------------------------------------
 Cycle:     49
  WF centre and spread    1  (  2.058020, -2.057787, -2.060340 )     1.89962846
  WF centre and spread    2  ( -2.058020,  2.060312,  2.057760 )     1.89962840
  WF centre and spread    3  ( -2.060839,  2.059251,  2.059279 )     1.89989167
  WF centre and spread    4  (  2.060840, -2.058848, -2.058822 )     1.89989135
  WF centre and spread    5  (  2.058283, -2.060510, -2.057985 )     1.89974890
  WF centre and spread    6  ( -2.058282,  2.057590,  2.060115 )     1.89974878
  Sum of centres and spreads (  0.000001,  0.000008,  0.000005 )    11.39853756
 
     49    -0.109E-07     0.0000996377       11.3985375621       0.13  <-- CONV
        O_D=      0.0000104 O_OD=      0.0219718 O_TOT=     11.3985376 <-- SPRD
 Delta: O_D= -0.2906226E-08 O_OD= -0.7960690E-08 O_TOT= -0.1086692E-07 <-- DLTA
 ------------------------------------------------------------------------------
 Cycle:     50
  WF centre and spread    1  (  2.058020, -2.057787, -2.060340 )     1.89962846
  WF centre and spread    2  ( -2.058020,  2.060312,  2.057760 )     1.89962840
  WF centre and spread    3  ( -2.060839,  2.059251,  2.059279 )     1.89989167
  WF centre and spread    4  (  2.060840, -2.058848, -2.058822 )     1.89989135
  WF centre and spread    5  (  2.058283, -2.060510, -2.057985 )     1.89974890
  WF centre and spread    6  ( -2.058282,  2.057590,  2.060115 )     1.89974878
  Sum of centres and spreads (  0.000001,  0.000008,  0.000005 )    11.39853756
 
     50    -0.282E-08     0.0000562150       11.3985375593       0.13  <-- CONV
        O_D=      0.0000104 O_OD=      0.0219718 O_TOT=     11.3985376 <-- SPRD
 Delta: O_D= -0.1075519E-10 O_OD= -0.2811206E-08 O_TOT= -0.2821961E-08 <-- DLTA
 ------------------------------------------------------------------------------
 Cycle:     51
  WF centre and spread    1  (  2.058020, -2.057787, -2.060340 )     1.89962846
  WF centre and spread    2  ( -2.058020,  2.060312,  2.057760 )     1.89962840
  WF centre and spread    3  ( -2.060839,  2.059251,  2.059279 )     1.89989168
  WF centre and spread    4  (  2.060840, -2.058848, -2.058822 )     1.89989136
  WF centre and spread    5  (  2.058283, -2.060510, -2.057985 )     1.89974890
  WF centre and spread    6  ( -2.058282,  2.057590,  2.060115 )     1.89974877
  Sum of centres and spreads (  0.000001,  0.000008,  0.000005 )    11.39853756
 
     51    -0.243E-08     0.0000434909       11.3985375568       0.14  <-- CONV
        O_D=      0.0000104 O_OD=      0.0219718 O_TOT=     11.3985376 <-- SPRD
 Delta: O_D=  0.3799890E-10 O_OD= -0.2466699E-08 O_TOT= -0.2428699E-08 <-- DLTA
 ------------------------------------------------------------------------------
 Cycle:     52
  WF centre and spread    1  (  2.058020, -2.057787, -2.060340 )     1.89962846
  WF centre and spread    2  ( -2.058020,  2.060312,  2.057760 )     1.89962840
  WF centre and spread    3  ( -2.060839,  2.059251,  2.059279 )     1.89989168
  WF centre and spread    4  (  2.060840, -2.058848, -2.058822 )     1.89989136
  WF centre and spread    5  (  2.058283, -2.060510, -2.057985 )     1.89974890
  WF centre and spread    6  ( -2.058282,  2.057590,  2.060115 )     1.89974877
  Sum of centres and spreads (  0.000001,  0.000008,  0.000005 )    11.39853756
 
     52    -0.753E-11     0.0000483657       11.3985375568       0.14  <-- CONV
        O_D=      0.0000104 O_OD=      0.0219718 O_TOT=     11.3985376 <-- SPRD
 Delta: O_D= -0.5164690E-12 O_OD= -0.7010118E-11 O_TOT= -0.7528200E-11 <-- DLTA
 ------------------------------------------------------------------------------
 Cycle:     53
  WF centre and spread    1  (  2.058020, -2.057787, -2.060341 )     1.89962846
  WF centre and spread    2  ( -2.058020,  2.060312,  2.057760 )     1.89962840
  WF centre and spread    3  ( -2.060839,  2.059251,  2.059279 )     1.89989168
  WF centre and spread    4  (  2.060840, -2.058848, -2.058822 )     1.89989136
  WF centre and spread    5  (  2.058283, -2.060510, -2.057985 )     1.89974889
  WF centre and spread    6  ( -2.058282,  2.057590,  2.060115 )     1.89974876
  Sum of centres and spreads (  0.000001,  0.000008,  0.000005 )    11.39853755
 
     53    -0.563E-08     0.0000483510       11.3985375512       0.14  <-- CONV
        O_D=      0.0000104 O_OD=      0.0219718 O_TOT=     11.3985376 <-- SPRD
 Delta: O_D=  0.5969381E-09 O_OD= -0.6222295E-08 O_TOT= -0.5625356E-08 <-- DLTA
 ------------------------------------------------------------------------------
 Cycle:     54
  WF centre and spread    1  (  2.058020, -2.057787, -2.060341 )     1.89962846
  WF centre and spread    2  ( -2.058020,  2.060312,  2.057760 )     1.89962840
  WF centre and spread    3  ( -2.060839,  2.059251,  2.059279 )     1.89989169
  WF centre and spread    4  (  2.060840, -2.058848, -2.058822 )     1.89989137
  WF centre and spread    5  (  2.058283, -2.060510, -2.057985 )     1.89974887
  WF centre and spread    6  ( -2.058282,  2.057590,  2.060115 )     1.89974875
  Sum of centres and spreads (  0.000001,  0.000008,  0.000005 )    11.39853755
 
     54    -0.608E-08     0.0000639669       11.3985375451       0.14  <-- CONV
        O_D=      0.0000104 O_OD=      0.0219718 O_TOT=     11.3985375 <-- SPRD
 Delta: O_D=  0.2176828E-08 O_OD= -0.8261085E-08 O_TOT= -0.6084257E-08 <-- DLTA
 ------------------------------------------------------------------------------
 Cycle:     55
  WF centre and spread    1  (  2.058020, -2.057787, -2.060341 )     1.89962846
  WF centre and spread    2  ( -2.058020,  2.060312,  2.057760 )     1.89962840
  WF centre and spread    3  ( -2.060839,  2.059251,  2.059279 )     1.89989169
  WF centre and spread    4  (  2.060840, -2.058848, -2.058822 )     1.89989137
  WF centre and spread    5  (  2.058283, -2.060510, -2.057985 )     1.89974887
  WF centre and spread    6  ( -2.058282,  2.057590,  2.060115 )     1.89974875
  Sum of centres and spreads (  0.000001,  0.000008,  0.000005 )    11.39853754
 
     55    -0.935E-08     0.0001104932       11.3985375358       0.15  <-- CONV
        O_D=      0.0000104 O_OD=      0.0219718 O_TOT=     11.3985375 <-- SPRD
 Delta: O_D= -0.2213507E-08 O_OD= -0.7133470E-08 O_TOT= -0.9346977E-08 <-- DLTA
 ------------------------------------------------------------------------------
 Cycle:     56
  WF centre and spread    1  (  2.058020, -2.057787, -2.060341 )     1.89962846
  WF centre and spread    2  ( -2.058020,  2.060312,  2.057760 )     1.89962840
  WF centre and spread    3  ( -2.060839,  2.059251,  2.059279 )     1.89989169
  WF centre and spread    4  (  2.060840, -2.058848, -2.058822 )     1.89989137
  WF centre and spread    5  (  2.058283, -2.060510, -2.057985 )     1.89974887
  WF centre and spread    6  ( -2.058282,  2.057590,  2.060115 )     1.89974875
  Sum of centres and spreads (  0.000001,  0.000008,  0.000005 )    11.39853753
 
     56    -0.226E-08     0.0000546521       11.3985375335       0.15  <-- CONV
        O_D=      0.0000104 O_OD=      0.0219718 O_TOT=     11.3985375 <-- SPRD
 Delta: O_D= -0.1942175E-10 O_OD= -0.2240460E-08 O_TOT= -0.2259883E-08 <-- DLTA
 ------------------------------------------------------------------------------
 Cycle:     57
  WF centre and spread    1  (  2.058020, -2.057787, -2.060341 )     1.89962846
  WF centre and spread    2  ( -2.058020,  2.060312,  2.057760 )     1.89962840
  WF centre and spread    3  ( -2.060839,  2.059251,  2.059279 )     1.89989168
  WF centre and spread    4  (  2.060840, -2.058848, -2.058822 )     1.89989137
  WF centre and spread    5  (  2.058283, -2.060510, -2.057985 )     1.89974887
  WF centre and spread    6  ( -2.058282,  2.057590,  2.060115 )     1.89974875
  Sum of centres and spreads (  0.000001,  0.000008,  0.000005 )    11.39853753
 
     57    -0.336E-08     0.0000622986       11.3985375302       0.15  <-- CONV
        O_D=      0.0000104 O_OD=      0.0219718 O_TOT=     11.3985375 <-- SPRD
 Delta: O_D= -0.1094247E-09 O_OD= -0.3247442E-08 O_TOT= -0.3356865E-08 <-- DLTA
 ------------------------------------------------------------------------------
 Cycle:     58
  WF centre and spread    1  (  2.058020, -2.057787, -2.060341 )     1.89962846
  WF centre and spread    2  ( -2.058020,  2.060312,  2.057760 )     1.89962840
  WF centre and spread    3  ( -2.060839,  2.059251,  2.059279 )     1.89989168
  WF centre and spread    4  (  2.060840, -2.058848, -2.058822 )     1.89989137
  WF centre and spread    5  (  2.058283, -2.060510, -2.057985 )     1.89974887
  WF centre and spread    6  ( -2.058282,  2.057590,  2.060115 )     1.89974875
  Sum of centres and spreads (  0.000001,  0.000008,  0.000005 )    11.39853753
 
     58    -0.799E-11     0.0000500073       11.3985375302       0.15  <-- CONV
        O_D=      0.0000104 O_OD=      0.0219718 O_TOT=     11.3985375 <-- SPRD
 Delta: O_D= -0.1381115E-11 O_OD= -0.6604977E-11 O_TOT= -0.7988277E-11 <-- DLTA
 ------------------------------------------------------------------------------
 Cycle:     59
  WF centre and spread    1  (  2.058020, -2.057787, -2.060341 )     1.89962846
  WF centre and spread    2  ( -2.058020,  2.060312,  2.057760 )     1.89962840
  WF centre and spread    3  ( -2.060839,  2.059251,  2.059279 )     1.89989168
  WF centre and spread    4  (  2.060840, -2.058848, -2.058822 )     1.89989136
  WF centre and spread    5  (  2.058283, -2.060510, -2.057985 )     1.89974887
  WF centre and spread    6  ( -2.058282,  2.057590,  2.060115 )     1.89974875
  Sum of centres and spreads (  0.000001,  0.000008,  0.000005 )    11.39853753
 
     59    -0.411E-08     0.0000499654       11.3985375260       0.16  <-- CONV
        O_D=      0.0000104 O_OD=      0.0219718 O_TOT=     11.3985375 <-- SPRD
 Delta: O_D=  0.2428036E-09 O_OD= -0.4351223E-08 O_TOT= -0.4108418E-08 <-- DLTA
 ------------------------------------------------------------------------------
 Cycle:     60
  WF centre and spread    1  (  2.058020, -2.057787, -2.060341 )     1.89962846
  WF centre and spread    2  ( -2.058020,  2.060312,  2.057760 )     1.89962840
  WF centre and spread    3  ( -2.060839,  2.059251,  2.059279 )     1.89989167
  WF centre and spread    4  (  2.060840, -2.058848, -2.058822 )     1.89989135
  WF centre and spread    5  (  2.058283, -2.060510, -2.057985 )     1.89974888
  WF centre and spread    6  ( -2.058282,  2.057590,  2.060115 )     1.89974875
  Sum of centres and spreads (  0.000001,  0.000008,  0.000005 )    11.39853752
 
     60    -0.196E-08     0.0000743577       11.3985375241       0.16  <-- CONV
        O_D=      0.0000104 O_OD=      0.0219718 O_TOT=     11.3985375 <-- SPRD
 Delta: O_D=  0.1117515E-08 O_OD= -0.3082236E-08 O_TOT= -0.1964720E-08 <-- DLTA
 ------------------------------------------------------------------------------
 Cycle:     61
  WF centre and spread    1  (  2.058020, -2.057787, -2.060341 )     1.89962846
  WF centre and spread    2  ( -2.058020,  2.060312,  2.057760 )     1.89962840
  WF centre and spread    3  ( -2.060839,  2.059251,  2.059279 )     1.89989167
  WF centre and spread    4  (  2.060840, -2.058848, -2.058822 )     1.89989135
  WF centre and spread    5  (  2.058283, -2.060510, -2.057985 )     1.89974887
  WF centre and spread    6  ( -2.058282,  2.057590,  2.060115 )     1.89974875
  Sum of centres and spreads (  0.000001,  0.000008,  0.000005 )    11.39853752
 
     61    -0.462E-08     0.0001003156       11.3985375195       0.16  <-- CONV
        O_D=      0.0000104 O_OD=      0.0219718 O_TOT=     11.3985375 <-- SPRD
 Delta: O_D= -0.1987811E-08 O_OD= -0.2631139E-08 O_TOT= -0.4618952E-08 <-- DLTA
 ------------------------------------------------------------------------------
 Cycle:     62
  WF centre and spread    1  (  2.058020, -2.057787, -2.060341 )     1.89962846
  WF centre and spread    2  ( -2.058020,  2.060312,  2.057760 )     1.89962840
  WF centre and spread    3  ( -2.060839,  2.059251,  2.059279 )     1.89989167
  WF centre and spread    4  (  2.060840, -2.058848, -2.058822 )     1.89989135
  WF centre and spread    5  (  2.058283, -2.060510, -2.057985 )     1.89974887
  WF centre and spread    6  ( -2.058282,  2.057590,  2.060115 )     1.89974875
  Sum of centres and spreads (  0.000001,  0.000008,  0.000005 )    11.39853752
 
     62    -0.238E-08     0.0000400989       11.3985375171       0.16  <-- CONV
        O_D=      0.0000104 O_OD=      0.0219718 O_TOT=     11.3985375 <-- SPRD
 Delta: O_D= -0.2873892E-09 O_OD= -0.2095453E-08 O_TOT= -0.2382841E-08 <-- DLTA
 ------------------------------------------------------------------------------
 Cycle:     63
  WF centre and spread    1  (  2.058020, -2.057787, -2.060341 )     1.89962846
  WF centre and spread    2  ( -2.058020,  2.060312,  2.057760 )     1.89962840
  WF centre and spread    3  ( -2.060839,  2.059251,  2.059279 )     1.89989167
  WF centre and spread    4  (  2.060840, -2.058848, -2.058822 )     1.89989135
  WF centre and spread    5  (  2.058283, -2.060510, -2.057985 )     1.89974887
  WF centre and spread    6  ( -2.058282,  2.057590,  2.060115 )     1.89974875
  Sum of centres and spreads (  0.000001,  0.000008,  0.000005 )    11.39853752
 
     63    -0.393E-11     0.0000319184       11.3985375171       0.17  <-- CONV
        O_D=      0.0000104 O_OD=      0.0219718 O_TOT=     11.3985375 <-- SPRD
 Delta: O_D= -0.8140857E-13 O_OD= -0.3848328E-11 O_TOT= -0.3929301E-11 <-- DLTA
 ------------------------------------------------------------------------------
 Cycle:     64
  WF centre and spread    1  (  2.058020, -2.057787, -2.060341 )     1.89962847
  WF centre and spread    2  ( -2.058020,  2.060312,  2.057760 )     1.89962841
  WF centre and spread    3  ( -2.060839,  2.059251,  2.059279 )     1.89989167
  WF centre and spread    4  (  2.060840, -2.058848, -2.058822 )     1.89989135
  WF centre and spread    5  (  2.058283, -2.060510, -2.057985 )     1.89974887
  WF centre and spread    6  ( -2.058282,  2.057590,  2.060115 )     1.89974875
  Sum of centres and spreads (  0.000001,  0.000008,  0.000005 )    11.39853751
 
     64    -0.340E-08     0.0000319051       11.3985375137       0.17  <-- CONV
        O_D=      0.0000104 O_OD=      0.0219718 O_TOT=     11.3985375 <-- SPRD
 Delta: O_D=  0.1227464E-08 O_OD= -0.4628137E-08 O_TOT= -0.3400674E-08 <-- DLTA
 ------------------------------------------------------------------------------
 Cycle:     65
  WF centre and spread    1  (  2.058020, -2.057787, -2.060341 )     1.89962847
  WF centre and spread    2  ( -2.058020,  2.060312,  2.057760 )     1.89962841
  WF centre and spread    3  ( -2.060839,  2.059251,  2.059279 )     1.89989167
  WF centre and spread    4  (  2.060840, -2.058848, -2.058822 )     1.89989135
  WF centre and spread    5  (  2.058283, -2.060510, -2.057985 )     1.89974887
  WF centre and spread    6  ( -2.058282,  2.057590,  2.060115 )     1.89974874
  Sum of centres and spreads (  0.000001,  0.000008,  0.000005 )    11.39853751
 
     65    -0.434E-08     0.0000917006       11.3985375093       0.17  <-- CONV
        O_D=      0.0000104 O_OD=      0.0219718 O_TOT=     11.3985375 <-- SPRD
 Delta: O_D= -0.1082261E-08 O_OD= -0.3259474E-08 O_TOT= -0.4341736E-08 <-- DLTA
 ------------------------------------------------------------------------------
 Cycle:     66
  WF centre and spread    1  (  2.058020, -2.057787, -2.060341 )     1.89962847
  WF centre and spread    2  ( -2.058020,  2.060312,  2.057760 )     1.89962841
  WF centre and spread    3  ( -2.060839,  2.059251,  2.059279 )     1.89989167
  WF centre and spread    4  (  2.060840, -2.058848, -2.058822 )     1.89989135
  WF centre and spread    5  (  2.058283, -2.060510, -2.057985 )     1.89974887
  WF centre and spread    6  ( -2.058282,  2.057590,  2.060115 )     1.89974874
  Sum of centres and spreads (  0.000001,  0.000008,  0.000005 )    11.39853751
 
     66    -0.158E-08     0.0000334166       11.3985375078       0.17  <-- CONV
        O_D=      0.0000104 O_OD=      0.0219718 O_TOT=     11.3985375 <-- SPRD
 Delta: O_D= -0.1254615E-09 O_OD= -0.1455881E-08 O_TOT= -0.1581343E-08 <-- DLTA
 ------------------------------------------------------------------------------
 Cycle:     67
  WF centre and spread    1  (  2.058020, -2.057787, -2.060341 )     1.89962847
  WF centre and spread    2  ( -2.058020,  2.060312,  2.057760 )     1.89962841
  WF centre and spread    3  ( -2.060839,  2.059251,  2.059279 )     1.89989167
  WF centre and spread    4  (  2.060840, -2.058848, -2.058822 )     1.89989135
  WF centre and spread    5  (  2.058283, -2.060510, -2.057985 )     1.89974887
  WF centre and spread    6  ( -2.058282,  2.057590,  2.060115 )     1.89974874
  Sum of centres and spreads (  0.000001,  0.000008,  0.000005 )    11.39853750
 
     67    -0.300E-08     0.0000311269       11.3985375048       0.18  <-- CONV
        O_D=      0.0000104 O_OD=      0.0219718 O_TOT=     11.3985375 <-- SPRD
 Delta: O_D=  0.2517392E-10 O_OD= -0.3023777E-08 O_TOT= -0.2998602E-08 <-- DLTA
 ------------------------------------------------------------------------------
 Cycle:     68
  WF centre and spread    1  (  2.058020, -2.057787, -2.060341 )     1.89962847
  WF centre and spread    2  ( -2.058020,  2.060312,  2.057760 )     1.89962841
  WF centre and spread    3  ( -2.060839,  2.059251,  2.059279 )     1.89989167
  WF centre and spread    4  (  2.060840, -2.058848, -2.058822 )     1.89989135
  WF centre and spread    5  (  2.058283, -2.060510, -2.057985 )     1.89974887
  WF centre and spread    6  ( -2.058282,  2.057590,  2.060115 )     1.89974874
  Sum of centres and spreads (  0.000001,  0.000008,  0.000005 )    11.39853750
 
     68    -0.712E-11     0.0000343680       11.3985375047       0.18  <-- CONV
        O_D=      0.0000104 O_OD=      0.0219718 O_TOT=     11.3985375 <-- SPRD
 Delta: O_D= -0.1269410E-12 O_OD= -0.6993763E-11 O_TOT= -0.7119638E-11 <-- DLTA
 ------------------------------------------------------------------------------
 Cycle:     69
  WF centre and spread    1  (  2.058020, -2.057787, -2.060341 )     1.89962847
  WF centre and spread    2  ( -2.058020,  2.060312,  2.057760 )     1.89962841
  WF centre and spread    3  ( -2.060839,  2.059251,  2.059279 )     1.89989167
  WF centre and spread    4  (  2.060840, -2.058848, -2.058822 )     1.89989135
  WF centre and spread    5  (  2.058283, -2.060510, -2.057985 )     1.89974886
  WF centre and spread    6  ( -2.058282,  2.057590,  2.060115 )     1.89974874
  Sum of centres and spreads (  0.000001,  0.000008,  0.000005 )    11.39853750
 
     69    -0.719E-08     0.0000343545       11.3985374976       0.18  <-- CONV
        O_D=      0.0000104 O_OD=      0.0219718 O_TOT=     11.3985375 <-- SPRD
 Delta: O_D=  0.1312850E-08 O_OD= -0.8504973E-08 O_TOT= -0.7192126E-08 <-- DLTA
 ------------------------------------------------------------------------------
 Cycle:     70
  WF centre and spread    1  (  2.058020, -2.057787, -2.060341 )     1.89962847
  WF centre and spread    2  ( -2.058020,  2.060312,  2.057760 )     1.89962841
  WF centre and spread    3  ( -2.060839,  2.059251,  2.059279 )     1.89989167
  WF centre and spread    4  (  2.060840, -2.058848, -2.058822 )     1.89989135
  WF centre and spread    5  (  2.058283, -2.060510, -2.057985 )     1.89974886
  WF centre and spread    6  ( -2.058282,  2.057590,  2.060115 )     1.89974874
  Sum of centres and spreads (  0.000001,  0.000008,  0.000005 )    11.39853749
 
     70    -0.421E-08     0.0000930867       11.3985374933       0.18  <-- CONV
        O_D=      0.0000104 O_OD=      0.0219718 O_TOT=     11.3985375 <-- SPRD
 Delta: O_D= -0.1335580E-08 O_OD= -0.2873526E-08 O_TOT= -0.4209104E-08 <-- DLTA
 ------------------------------------------------------------------------------
 Cycle:     71
  WF centre and spread    1  (  2.058020, -2.057787, -2.060341 )     1.89962847
  WF centre and spread    2  ( -2.058020,  2.060312,  2.057760 )     1.89962841
  WF centre and spread    3  ( -2.060839,  2.059251,  2.059279 )     1.89989167
[...]
 Cycle:    481
  WF centre and spread    1  (  2.058021, -2.057788, -2.060342 )     1.89962875
  WF centre and spread    2  ( -2.058021,  2.060311,  2.057759 )     1.89962869
  WF centre and spread    3  ( -2.060839,  2.059252,  2.059279 )     1.89989140
  WF centre and spread    4  (  2.060840, -2.058848, -2.058821 )     1.89989109
  WF centre and spread    5  (  2.058281, -2.060510, -2.057985 )     1.89974820
  WF centre and spread    6  ( -2.058281,  2.057590,  2.060115 )     1.89974808
  Sum of centres and spreads (  0.000001,  0.000008,  0.000005 )    11.39853621
 
    481    -0.171E-08     0.0000365880       11.3985362118       2.20  <-- CONV
        O_D=      0.0000104 O_OD=      0.0219705 O_TOT=     11.3985362 <-- SPRD
 Delta: O_D=  0.1089365E-09 O_OD= -0.1823897E-08 O_TOT= -0.1714961E-08 <-- DLTA
 ------------------------------------------------------------------------------
 Cycle:    482
  WF centre and spread    1  (  2.058021, -2.057788, -2.060342 )     1.89962875
  WF centre and spread    2  ( -2.058021,  2.060311,  2.057759 )     1.89962869
  WF centre and spread    3  ( -2.060839,  2.059252,  2.059279 )     1.89989140
  WF centre and spread    4  (  2.060840, -2.058848, -2.058821 )     1.89989108
  WF centre and spread    5  (  2.058281, -2.060510, -2.057985 )     1.89974820
  WF centre and spread    6  ( -2.058281,  2.057590,  2.060115 )     1.89974807
  Sum of centres and spreads (  0.000001,  0.000008,  0.000005 )    11.39853621
 
    482    -0.151E-08     0.0000430727       11.3985362103       2.20  <-- CONV
        O_D=      0.0000104 O_OD=      0.0219705 O_TOT=     11.3985362 <-- SPRD
 Delta: O_D=  0.1059404E-08 O_OD= -0.2573985E-08 O_TOT= -0.1514582E-08 <-- DLTA
 ------------------------------------------------------------------------------
 Cycle:    483
  WF centre and spread    1  (  2.058021, -2.057788, -2.060342 )     1.89962876
  WF centre and spread    2  ( -2.058021,  2.060311,  2.057759 )     1.89962870
  WF centre and spread    3  ( -2.060839,  2.059252,  2.059279 )     1.89989140
  WF centre and spread    4  (  2.060840, -2.058848, -2.058821 )     1.89989108
  WF centre and spread    5  (  2.058281, -2.060510, -2.057985 )     1.89974819
  WF centre and spread    6  ( -2.058281,  2.057590,  2.060115 )     1.89974807
  Sum of centres and spreads (  0.000001,  0.000008,  0.000005 )    11.39853621
 
    483    -0.320E-08     0.0000736253       11.3985362071       2.21  <-- CONV
        O_D=      0.0000104 O_OD=      0.0219705 O_TOT=     11.3985362 <-- SPRD
 Delta: O_D=  0.1379778E-08 O_OD= -0.4578693E-08 O_TOT= -0.3198915E-08 <-- DLTA
 ------------------------------------------------------------------------------
 Cycle:    484
  WF centre and spread    1  (  2.058021, -2.057788, -2.060342 )     1.89962876
  WF centre and spread    2  ( -2.058021,  2.060311,  2.057759 )     1.89962870
  WF centre and spread    3  ( -2.060839,  2.059252,  2.059279 )     1.89989140
  WF centre and spread    4  (  2.060840, -2.058848, -2.058821 )     1.89989108
  WF centre and spread    5  (  2.058281, -2.060510, -2.057985 )     1.89974819
  WF centre and spread    6  ( -2.058281,  2.057590,  2.060115 )     1.89974806
  Sum of centres and spreads (  0.000001,  0.000008,  0.000005 )    11.39853620
 
    484    -0.558E-08     0.0000960925       11.3985362015       2.21  <-- CONV
        O_D=      0.0000104 O_OD=      0.0219705 O_TOT=     11.3985362 <-- SPRD
 Delta: O_D=  0.4410340E-08 O_OD= -0.9993141E-08 O_TOT= -0.5582802E-08 <-- DLTA
 ------------------------------------------------------------------------------
 Cycle:    485
  WF centre and spread    1  (  2.058021, -2.057788, -2.060342 )     1.89962876
  WF centre and spread    2  ( -2.058021,  2.060311,  2.057759 )     1.89962870
  WF centre and spread    3  ( -2.060839,  2.059252,  2.059279 )     1.89989140
  WF centre and spread    4  (  2.060840, -2.058848, -2.058821 )     1.89989108
  WF centre and spread    5  (  2.058281, -2.060510, -2.057985 )     1.89974818
  WF centre and spread    6  ( -2.058281,  2.057590,  2.060115 )     1.89974806
  Sum of centres and spreads (  0.000001,  0.000008,  0.000005 )    11.39853618
 
    485    -0.167E-07     0.0001441392       11.3985361849       2.21  <-- CONV
        O_D=      0.0000104 O_OD=      0.0219704 O_TOT=     11.3985362 <-- SPRD
 Delta: O_D= -0.4860288E-08 O_OD= -0.1180379E-07 O_TOT= -0.1666408E-07 <-- DLTA
 ------------------------------------------------------------------------------
 Cycle:    486
  WF centre and spread    1  (  2.058021, -2.057788, -2.060342 )     1.89962876
  WF centre and spread    2  ( -2.058021,  2.060311,  2.057759 )     1.89962870
  WF centre and spread    3  ( -2.060839,  2.059252,  2.059279 )     1.89989140
  WF centre and spread    4  (  2.060840, -2.058848, -2.058821 )     1.89989108
  WF centre and spread    5  (  2.058281, -2.060510, -2.057985 )     1.89974818
  WF centre and spread    6  ( -2.058281,  2.057590,  2.060115 )     1.89974806
  Sum of centres and spreads (  0.000001,  0.000008,  0.000005 )    11.39853618
 
    486    -0.440E-08     0.0000849798       11.3985361805       2.21  <-- CONV
        O_D=      0.0000104 O_OD=      0.0219704 O_TOT=     11.3985362 <-- SPRD
 Delta: O_D= -0.2250420E-08 O_OD= -0.2154204E-08 O_TOT= -0.4404624E-08 <-- DLTA
 ------------------------------------------------------------------------------
 Cycle:    487
  WF centre and spread    1  (  2.058021, -2.057788, -2.060342 )     1.89962876
  WF centre and spread    2  ( -2.058021,  2.060311,  2.057759 )     1.89962870
  WF centre and spread    3  ( -2.060839,  2.059252,  2.059279 )     1.89989140
  WF centre and spread    4  (  2.060840, -2.058848, -2.058821 )     1.89989108
  WF centre and spread    5  (  2.058281, -2.060510, -2.057985 )     1.89974818
  WF centre and spread    6  ( -2.058281,  2.057590,  2.060115 )     1.89974806
  Sum of centres and spreads (  0.000001,  0.000008,  0.000005 )    11.39853618
 
    487    -0.295E-11     0.0000324609       11.3985361805       2.22  <-- CONV
        O_D=      0.0000104 O_OD=      0.0219704 O_TOT=     11.3985362 <-- SPRD
 Delta: O_D= -0.3231594E-12 O_OD= -0.2622770E-11 O_TOT= -0.2946976E-11 <-- DLTA
 ------------------------------------------------------------------------------
 Cycle:    488
  WF centre and spread    1  (  2.058021, -2.057788, -2.060342 )     1.89962876
  WF centre and spread    2  ( -2.058021,  2.060311,  2.057759 )     1.89962870
  WF centre and spread    3  ( -2.060839,  2.059252,  2.059279 )     1.89989140
  WF centre and spread    4  (  2.060840, -2.058848, -2.058821 )     1.89989108
  WF centre and spread    5  (  2.058281, -2.060510, -2.057985 )     1.89974818
  WF centre and spread    6  ( -2.058281,  2.057590,  2.060115 )     1.89974806
  Sum of centres and spreads (  0.000001,  0.000008,  0.000005 )    11.39853618
 
    488    -0.232E-08     0.0000324448       11.3985361782       2.22  <-- CONV
        O_D=      0.0000104 O_OD=      0.0219704 O_TOT=     11.3985362 <-- SPRD
 Delta: O_D=  0.2434235E-09 O_OD= -0.2562929E-08 O_TOT= -0.2319506E-08 <-- DLTA
 ------------------------------------------------------------------------------
 Cycle:    489
  WF centre and spread    1  (  2.058021, -2.057788, -2.060342 )     1.89962877
  WF centre and spread    2  ( -2.058021,  2.060311,  2.057759 )     1.89962871
  WF centre and spread    3  ( -2.060839,  2.059252,  2.059279 )     1.89989139
  WF centre and spread    4  (  2.060840, -2.058848, -2.058821 )     1.89989107
  WF centre and spread    5  (  2.058281, -2.060510, -2.057985 )     1.89974818
  WF centre and spread    6  ( -2.058281,  2.057590,  2.060115 )     1.89974806
  Sum of centres and spreads (  0.000001,  0.000008,  0.000005 )    11.39853617
 
    489    -0.590E-08     0.0000439901       11.3985361723       2.22  <-- CONV
        O_D=      0.0000104 O_OD=      0.0219704 O_TOT=     11.3985362 <-- SPRD
 Delta: O_D=  0.1159850E-08 O_OD= -0.7059583E-08 O_TOT= -0.5899730E-08 <-- DLTA
 ------------------------------------------------------------------------------
 Cycle:    490
  WF centre and spread    1  (  2.058021, -2.057788, -2.060342 )     1.89962876
  WF centre and spread    2  ( -2.058021,  2.060311,  2.057759 )     1.89962870
  WF centre and spread    3  ( -2.060839,  2.059252,  2.059279 )     1.89989139
  WF centre and spread    4  (  2.060840, -2.058848, -2.058821 )     1.89989107
  WF centre and spread    5  (  2.058281, -2.060510, -2.057985 )     1.89974818
  WF centre and spread    6  ( -2.058281,  2.057590,  2.060115 )     1.89974805
  Sum of centres and spreads (  0.000001,  0.000008,  0.000005 )    11.39853617
 
    490    -0.443E-08     0.0000822388       11.3985361678       2.22  <-- CONV
        O_D=      0.0000104 O_OD=      0.0219704 O_TOT=     11.3985362 <-- SPRD
 Delta: O_D= -0.8168779E-09 O_OD= -0.3608281E-08 O_TOT= -0.4425161E-08 <-- DLTA
 ------------------------------------------------------------------------------
 Cycle:    491
  WF centre and spread    1  (  2.058021, -2.057788, -2.060342 )     1.89962876
  WF centre and spread    2  ( -2.058021,  2.060311,  2.057759 )     1.89962870
  WF centre and spread    3  ( -2.060839,  2.059252,  2.059279 )     1.89989139
  WF centre and spread    4  (  2.060840, -2.058848, -2.058821 )     1.89989108
  WF centre and spread    5  (  2.058281, -2.060510, -2.057985 )     1.89974818
  WF centre and spread    6  ( -2.058281,  2.057590,  2.060115 )     1.89974805
  Sum of centres and spreads (  0.000001,  0.000008,  0.000005 )    11.39853617
 
    491    -0.226E-08     0.0000543022       11.3985361656       2.23  <-- CONV
        O_D=      0.0000104 O_OD=      0.0219704 O_TOT=     11.3985362 <-- SPRD
 Delta: O_D= -0.6844802E-09 O_OD= -0.1572372E-08 O_TOT= -0.2256851E-08 <-- DLTA
 ------------------------------------------------------------------------------
 Cycle:    492
  WF centre and spread    1  (  2.058021, -2.057788, -2.060342 )     1.89962876
  WF centre and spread    2  ( -2.058021,  2.060311,  2.057759 )     1.89962870
  WF centre and spread    3  ( -2.060839,  2.059252,  2.059279 )     1.89989139
  WF centre and spread    4  (  2.060840, -2.058848, -2.058821 )     1.89989108
  WF centre and spread    5  (  2.058281, -2.060510, -2.057985 )     1.89974818
  WF centre and spread    6  ( -2.058281,  2.057590,  2.060115 )     1.89974805
  Sum of centres and spreads (  0.000001,  0.000008,  0.000005 )    11.39853617
 
    492    -0.433E-11     0.0000352004       11.3985361656       2.23  <-- CONV
        O_D=      0.0000104 O_OD=      0.0219704 O_TOT=     11.3985362 <-- SPRD
 Delta: O_D= -0.1293254E-12 O_OD= -0.4204623E-11 O_TOT= -0.4334311E-11 <-- DLTA
 ------------------------------------------------------------------------------
 Cycle:    493
  WF centre and spread    1  (  2.058021, -2.057788, -2.060342 )     1.89962876
  WF centre and spread    2  ( -2.058021,  2.060311,  2.057759 )     1.89962870
  WF centre and spread    3  ( -2.060839,  2.059252,  2.059279 )     1.89989139
  WF centre and spread    4  (  2.060840, -2.058848, -2.058821 )     1.89989108
  WF centre and spread    5  (  2.058281, -2.060510, -2.057985 )     1.89974817
  WF centre and spread    6  ( -2.058281,  2.057590,  2.060115 )     1.89974805
  Sum of centres and spreads (  0.000001,  0.000008,  0.000005 )    11.39853616
 
    493    -0.239E-08     0.0000351736       11.3985361632       2.23  <-- CONV
        O_D=      0.0000104 O_OD=      0.0219704 O_TOT=     11.3985362 <-- SPRD
 Delta: O_D=  0.1350362E-09 O_OD= -0.2527084E-08 O_TOT= -0.2392047E-08 <-- DLTA
 ------------------------------------------------------------------------------
 Cycle:    494
  WF centre and spread    1  (  2.058021, -2.057788, -2.060342 )     1.89962877
  WF centre and spread    2  ( -2.058021,  2.060311,  2.057759 )     1.89962871
  WF centre and spread    3  ( -2.060839,  2.059252,  2.059279 )     1.89989139
  WF centre and spread    4  (  2.060840, -2.058848, -2.058821 )     1.89989108
  WF centre and spread    5  (  2.058281, -2.060510, -2.057985 )     1.89974817
  WF centre and spread    6  ( -2.058281,  2.057590,  2.060115 )     1.89974805
  Sum of centres and spreads (  0.000001,  0.000008,  0.000005 )    11.39853616
 
    494    -0.156E-08     0.0000488563       11.3985361616       2.23  <-- CONV
        O_D=      0.0000104 O_OD=      0.0219704 O_TOT=     11.3985362 <-- SPRD
 Delta: O_D=  0.7194716E-09 O_OD= -0.2276032E-08 O_TOT= -0.1556561E-08 <-- DLTA
 ------------------------------------------------------------------------------
 Cycle:    495
  WF centre and spread    1  (  2.058021, -2.057788, -2.060342 )     1.89962876
  WF centre and spread    2  ( -2.058021,  2.060311,  2.057759 )     1.89962871
  WF centre and spread    3  ( -2.060839,  2.059252,  2.059279 )     1.89989139
  WF centre and spread    4  (  2.060840, -2.058848, -2.058821 )     1.89989107
  WF centre and spread    5  (  2.058281, -2.060510, -2.057985 )     1.89974817
  WF centre and spread    6  ( -2.058281,  2.057590,  2.060115 )     1.89974805
  Sum of centres and spreads (  0.000001,  0.000008,  0.000005 )    11.39853616
 
    495    -0.553E-08     0.0000911589       11.3985361561       2.24  <-- CONV
        O_D=      0.0000104 O_OD=      0.0219704 O_TOT=     11.3985362 <-- SPRD
 Delta: O_D= -0.8590651E-09 O_OD= -0.4666418E-08 O_TOT= -0.5525484E-08 <-- DLTA
 ------------------------------------------------------------------------------
 Cycle:    496
  WF centre and spread    1  (  2.058021, -2.057788, -2.060342 )     1.89962876
  WF centre and spread    2  ( -2.058021,  2.060311,  2.057759 )     1.89962871
  WF centre and spread    3  ( -2.060839,  2.059252,  2.059279 )     1.89989139
  WF centre and spread    4  (  2.060840, -2.058848, -2.058821 )     1.89989107
  WF centre and spread    5  (  2.058281, -2.060510, -2.057985 )     1.89974817
  WF centre and spread    6  ( -2.058281,  2.057590,  2.060115 )     1.89974805
  Sum of centres and spreads (  0.000001,  0.000008,  0.000005 )    11.39853616
 
    496    -0.310E-11     0.0000328725       11.3985361561       2.24  <-- CONV
        O_D=      0.0000104 O_OD=      0.0219704 O_TOT=     11.3985362 <-- SPRD
 Delta: O_D= -0.1829277E-12 O_OD= -0.2915067E-11 O_TOT= -0.3097966E-11 <-- DLTA
 ------------------------------------------------------------------------------
 Cycle:    497
  WF centre and spread    1  (  2.058021, -2.057788, -2.060342 )     1.89962877
  WF centre and spread    2  ( -2.058021,  2.060311,  2.057759 )     1.89962871
  WF centre and spread    3  ( -2.060839,  2.059252,  2.059279 )     1.89989139
  WF centre and spread    4  (  2.060840, -2.058848, -2.058821 )     1.89989107
  WF centre and spread    5  (  2.058281, -2.060510, -2.057985 )     1.89974817
  WF centre and spread    6  ( -2.058281,  2.057590,  2.060115 )     1.89974805
  Sum of centres and spreads (  0.000001,  0.000008,  0.000005 )    11.39853615
 
    497    -0.261E-08     0.0000328553       11.3985361535       2.24  <-- CONV
        O_D=      0.0000104 O_OD=      0.0219704 O_TOT=     11.3985362 <-- SPRD
 Delta: O_D=  0.5591924E-10 O_OD= -0.2661250E-08 O_TOT= -0.2605329E-08 <-- DLTA
 ------------------------------------------------------------------------------
 Cycle:    498
  WF centre and spread    1  (  2.058021, -2.057788, -2.060342 )     1.89962877
  WF centre and spread    2  ( -2.058021,  2.060311,  2.057759 )     1.89962871
  WF centre and spread    3  ( -2.060839,  2.059252,  2.059279 )     1.89989139
  WF centre and spread    4  (  2.060840, -2.058848, -2.058821 )     1.89989107
  WF centre and spread    5  (  2.058281, -2.060510, -2.057985 )     1.89974817
  WF centre and spread    6  ( -2.058281,  2.057590,  2.060115 )     1.89974804
  Sum of centres and spreads (  0.000001,  0.000008,  0.000005 )    11.39853615
 
    498    -0.178E-08     0.0000552687       11.3985361517       2.24  <-- CONV
        O_D=      0.0000104 O_OD=      0.0219704 O_TOT=     11.3985362 <-- SPRD
 Delta: O_D=  0.1091395E-08 O_OD= -0.2876002E-08 O_TOT= -0.1784610E-08 <-- DLTA
 ------------------------------------------------------------------------------
 Cycle:    499
  WF centre and spread    1  (  2.058021, -2.057788, -2.060342 )     1.89962877
  WF centre and spread    2  ( -2.058021,  2.060311,  2.057759 )     1.89962871
  WF centre and spread    3  ( -2.060839,  2.059252,  2.059279 )     1.89989139
  WF centre and spread    4  (  2.060840, -2.058848, -2.058821 )     1.89989107
  WF centre and spread    5  (  2.058281, -2.060510, -2.057985 )     1.89974817
  WF centre and spread    6  ( -2.058281,  2.057590,  2.060115 )     1.89974804
  Sum of centres and spreads (  0.000001,  0.000008,  0.000005 )    11.39853614
 
    499    -0.744E-08     0.0001088386       11.3985361443       2.25  <-- CONV
        O_D=      0.0000104 O_OD=      0.0219704 O_TOT=     11.3985361 <-- SPRD
 Delta: O_D= -0.9522229E-09 O_OD= -0.6491335E-08 O_TOT= -0.7443559E-08 <-- DLTA
 ------------------------------------------------------------------------------
 Cycle:    500
  WF centre and spread    1  (  2.058021, -2.057788, -2.060342 )     1.89962877
  WF centre and spread    2  ( -2.058021,  2.060311,  2.057759 )     1.89962871
  WF centre and spread    3  ( -2.060839,  2.059252,  2.059279 )     1.89989139
  WF centre and spread    4  (  2.060840, -2.058848, -2.058821 )     1.89989107
  WF centre and spread    5  (  2.058281, -2.060510, -2.057985 )     1.89974817
  WF centre and spread    6  ( -2.058281,  2.057590,  2.060115 )     1.89974804
  Sum of centres and spreads (  0.000001,  0.000008,  0.000005 )    11.39853614
 
    500    -0.626E-11     0.0000459384       11.3985361443       2.25  <-- CONV
        O_D=      0.0000104 O_OD=      0.0219704 O_TOT=     11.3985361 <-- SPRD
 Delta: O_D= -0.8544361E-12 O_OD= -0.5405419E-11 O_TOT= -0.6259882E-11 <-- DLTA
 ------------------------------------------------------------------------------

 Writing checkpoint file KRrBr2.chk... done

 Final State
  WF centre and spread    1  (  2.058021, -2.057788, -2.060342 )     1.89962877
  WF centre and spread    2  ( -2.058021,  2.060311,  2.057759 )     1.89962871
  WF centre and spread    3  ( -2.060839,  2.059252,  2.059279 )     1.89989139
  WF centre and spread    4  (  2.060840, -2.058848, -2.058821 )     1.89989107
  WF centre and spread    5  (  2.058281, -2.060510, -2.057985 )     1.89974817
  WF centre and spread    6  ( -2.058281,  2.057590,  2.060115 )     1.89974804
  Sum of centres and spreads (  0.000001,  0.000008,  0.000005 )    11.39853614
 
         Spreads (Ang^2)       Omega I      =    11.376555300
        ================       Omega D      =     0.000010437
                               Omega OD     =     0.021970407
    Final Spread (Ang^2)       Omega Total  =    11.398536144
 ------------------------------------------------------------------------------
 Time for wannierise            1.227 (sec)

 Writing checkpoint file KRrBr2.chk... done

 Time for plotting              0.000 (sec)
 Total Execution Time           1.804 (sec)

 *===========================================================================*
 |                             TIMING INFORMATION                            |
 *===========================================================================*
 |    Tag                                                Ncalls      Time (s)|
 |---------------------------------------------------------------------------|
 |kmesh: get                                        :         1         0.353|
 |overlap: allocate                                 :         1         0.001|
 |overlap: read                                     :         1         0.173|
 |wann: main                                        :         1         1.227|
 |plot: main                                        :         1         0.000|
 *---------------------------------------------------------------------------*
 
 All done: wannier90 exiting
