
     Program PWSCF v.7.1 starts on  8Apr2024 at 15:11:42 

     This program is part of the open-source Quantum ESPRESSO suite
     for quantum simulation of materials; please cite
         "P. Giannozzi et al., J. Phys.:Condens. Matter 21 395502 (2009);
         "P. Giannozzi et al., J. Phys.:Condens. Matter 29 465901 (2017);
         "P. Giannozzi et al., J. Chem. Phys. 152 154105 (2020);
          URL http://www.quantum-espresso.org", 
     in publications or presentations arising from this work. More details at
     http://www.quantum-espresso.org/quote

     Parallel version (MPI), running on    16 processors

     MPI processes distributed on     1 nodes
     246217 MiB available memory on the printing compute node when the environment starts
 
     Reading input from pw_mp-22875_scf_k3000_E65.in
Warning: card &CELL ignored
Warning: card / ignored

     Current dimensions of program PWSCF are:
     Max number of different atomic species (ntypx) = 10
     Max number of k-points (npk) =  40000
     Max angular momentum in pseudopotentials (lmaxx) =  4
 
     R & G space division:  proc/nbgrp/npool/nimage =      16
     Subspace diagonalization in iterative solution of the eigenvalue problem:
     a serial algorithm will be used

 
     Parallelization info
     --------------------
     sticks:   dense  smooth     PW     G-vecs:    dense   smooth      PW
     Min          74      74     21                 1914     1914     307
     Max          75      75     22                 1917     1917     310
     Sum        1185    1185    349                30647    30647    4945
 
     Using Slab Decomposition
 


     bravais-lattice index     =            1
     lattice parameter (alat)  =       7.5587  a.u.
     unit-cell volume          =     431.8631 (a.u.)^3
     number of atoms/cell      =            2
     number of atomic types    =            2
     number of electrons       =        20.00
     number of Kohn-Sham states=           20
     kinetic-energy cutoff     =      65.0000  Ry
     charge density cutoff     =     260.0000  Ry
     scf convergence threshold =      1.0E-10
     mixing beta               =       0.7000
     number of iterations used =            8  plain     mixing
     Exchange-correlation= PBE
                           (   1   4   3   4   0   0   0)

     celldm(1)=   7.558728  celldm(2)=   0.000000  celldm(3)=   0.000000
     celldm(4)=   0.000000  celldm(5)=   0.000000  celldm(6)=   0.000000

     crystal axes: (cart. coord. in units of alat)
               a(1) = (   1.000000   0.000000   0.000000 )  
               a(2) = (   0.000000   1.000000   0.000000 )  
               a(3) = (   0.000000   0.000000   1.000000 )  

     reciprocal axes: (cart. coord. in units 2 pi/alat)
               b(1) = (  1.000000  0.000000  0.000000 )  
               b(2) = (  0.000000  1.000000  0.000000 )  
               b(3) = (  0.000000  0.000000  1.000000 )  


     PseudoPot. # 1 for Br read from file:
     /usr/scratch4/magr4826/Promotion/Python/Code/devEb/pseudo/SG15/Br.upf
     MD5 check sum: 5b50323dbf1c0ae0ed9e7f1e72c3f86c
     Pseudo is Norm-conserving, Zval =  7.0
     Generated using ONCVPSP code by D. R. Hamann
     Using radial grid of  602 points,  6 beta functions with: 
                l(1) =   0
                l(2) =   0
                l(3) =   1
                l(4) =   1
                l(5) =   2
                l(6) =   2

     PseudoPot. # 2 for Tl read from file:
     /usr/scratch4/magr4826/Promotion/Python/Code/devEb/pseudo/SG15/Tl.upf
     MD5 check sum: e609bed4a69cad82b6107f8b9c0b5d83
     Pseudo is Norm-conserving, Zval = 13.0
     Generated using ONCVPSP code by D. R. Hamann
     Using radial grid of  602 points,  8 beta functions with: 
                l(1) =   0
                l(2) =   0
                l(3) =   1
                l(4) =   1
                l(5) =   2
                l(6) =   2
                l(7) =   3
                l(8) =   3

     atomic species   valence    mass     pseudopotential
        Br             7.00    79.90400     Br( 1.00)
        Tl            13.00   204.38330     Tl( 1.00)

     48 Sym. Ops., with inversion, found



   Cartesian axes

     site n.     atom                  positions (alat units)
         1           Tl  tau(   1) = (   0.0000000   0.0000000   0.0000000  )
         2           Br  tau(   2) = (   0.5000000   0.5000000   0.5000000  )

     number of k points=    84  Gaussian smearing, width (Ry)=  0.0005
                       cart. coord. in units 2pi/alat
        k(    1) = (   0.0000000   0.0000000   0.0000000), wk =   0.0011574
        k(    2) = (   0.0000000   0.0000000   0.0833333), wk =   0.0069444
        k(    3) = (   0.0000000   0.0000000   0.1666667), wk =   0.0069444
        k(    4) = (   0.0000000   0.0000000   0.2500000), wk =   0.0069444
        k(    5) = (   0.0000000   0.0000000   0.3333333), wk =   0.0069444
        k(    6) = (   0.0000000   0.0000000   0.4166667), wk =   0.0069444
        k(    7) = (   0.0000000   0.0000000  -0.5000000), wk =   0.0034722
        k(    8) = (   0.0000000   0.0833333   0.0833333), wk =   0.0138889
        k(    9) = (   0.0000000   0.0833333   0.1666667), wk =   0.0277778
        k(   10) = (   0.0000000   0.0833333   0.2500000), wk =   0.0277778
        k(   11) = (   0.0000000   0.0833333   0.3333333), wk =   0.0277778
        k(   12) = (   0.0000000   0.0833333   0.4166667), wk =   0.0277778
        k(   13) = (   0.0000000   0.0833333  -0.5000000), wk =   0.0138889
        k(   14) = (   0.0000000   0.1666667   0.1666667), wk =   0.0138889
        k(   15) = (   0.0000000   0.1666667   0.2500000), wk =   0.0277778
        k(   16) = (   0.0000000   0.1666667   0.3333333), wk =   0.0277778
        k(   17) = (   0.0000000   0.1666667   0.4166667), wk =   0.0277778
        k(   18) = (   0.0000000   0.1666667  -0.5000000), wk =   0.0138889
        k(   19) = (   0.0000000   0.2500000   0.2500000), wk =   0.0138889
        k(   20) = (   0.0000000   0.2500000   0.3333333), wk =   0.0277778
        k(   21) = (   0.0000000   0.2500000   0.4166667), wk =   0.0277778
        k(   22) = (   0.0000000   0.2500000  -0.5000000), wk =   0.0138889
        k(   23) = (   0.0000000   0.3333333   0.3333333), wk =   0.0138889
        k(   24) = (   0.0000000   0.3333333   0.4166667), wk =   0.0277778
        k(   25) = (   0.0000000   0.3333333  -0.5000000), wk =   0.0138889
        k(   26) = (   0.0000000   0.4166667   0.4166667), wk =   0.0138889
        k(   27) = (   0.0000000   0.4166667  -0.5000000), wk =   0.0138889
        k(   28) = (   0.0000000  -0.5000000  -0.5000000), wk =   0.0034722
        k(   29) = (   0.0833333   0.0833333   0.0833333), wk =   0.0092593
        k(   30) = (   0.0833333   0.0833333   0.1666667), wk =   0.0277778
        k(   31) = (   0.0833333   0.0833333   0.2500000), wk =   0.0277778
        k(   32) = (   0.0833333   0.0833333   0.3333333), wk =   0.0277778
        k(   33) = (   0.0833333   0.0833333   0.4166667), wk =   0.0277778
        k(   34) = (   0.0833333   0.0833333  -0.5000000), wk =   0.0138889
        k(   35) = (   0.0833333   0.1666667   0.1666667), wk =   0.0277778
        k(   36) = (   0.0833333   0.1666667   0.2500000), wk =   0.0555556
        k(   37) = (   0.0833333   0.1666667   0.3333333), wk =   0.0555556
        k(   38) = (   0.0833333   0.1666667   0.4166667), wk =   0.0555556
        k(   39) = (   0.0833333   0.1666667  -0.5000000), wk =   0.0277778
        k(   40) = (   0.0833333   0.2500000   0.2500000), wk =   0.0277778
        k(   41) = (   0.0833333   0.2500000   0.3333333), wk =   0.0555556
        k(   42) = (   0.0833333   0.2500000   0.4166667), wk =   0.0555556
        k(   43) = (   0.0833333   0.2500000  -0.5000000), wk =   0.0277778
        k(   44) = (   0.0833333   0.3333333   0.3333333), wk =   0.0277778
        k(   45) = (   0.0833333   0.3333333   0.4166667), wk =   0.0555556
        k(   46) = (   0.0833333   0.3333333  -0.5000000), wk =   0.0277778
        k(   47) = (   0.0833333   0.4166667   0.4166667), wk =   0.0277778
        k(   48) = (   0.0833333   0.4166667  -0.5000000), wk =   0.0277778
        k(   49) = (   0.0833333  -0.5000000  -0.5000000), wk =   0.0069444
        k(   50) = (   0.1666667   0.1666667   0.1666667), wk =   0.0092593
        k(   51) = (   0.1666667   0.1666667   0.2500000), wk =   0.0277778
        k(   52) = (   0.1666667   0.1666667   0.3333333), wk =   0.0277778
        k(   53) = (   0.1666667   0.1666667   0.4166667), wk =   0.0277778
        k(   54) = (   0.1666667   0.1666667  -0.5000000), wk =   0.0138889
        k(   55) = (   0.1666667   0.2500000   0.2500000), wk =   0.0277778
        k(   56) = (   0.1666667   0.2500000   0.3333333), wk =   0.0555556
        k(   57) = (   0.1666667   0.2500000   0.4166667), wk =   0.0555556
        k(   58) = (   0.1666667   0.2500000  -0.5000000), wk =   0.0277778
        k(   59) = (   0.1666667   0.3333333   0.3333333), wk =   0.0277778
        k(   60) = (   0.1666667   0.3333333   0.4166667), wk =   0.0555556
        k(   61) = (   0.1666667   0.3333333  -0.5000000), wk =   0.0277778
        k(   62) = (   0.1666667   0.4166667   0.4166667), wk =   0.0277778
        k(   63) = (   0.1666667   0.4166667  -0.5000000), wk =   0.0277778
        k(   64) = (   0.1666667  -0.5000000  -0.5000000), wk =   0.0069444
        k(   65) = (   0.2500000   0.2500000   0.2500000), wk =   0.0092593
        k(   66) = (   0.2500000   0.2500000   0.3333333), wk =   0.0277778
        k(   67) = (   0.2500000   0.2500000   0.4166667), wk =   0.0277778
        k(   68) = (   0.2500000   0.2500000  -0.5000000), wk =   0.0138889
        k(   69) = (   0.2500000   0.3333333   0.3333333), wk =   0.0277778
        k(   70) = (   0.2500000   0.3333333   0.4166667), wk =   0.0555556
        k(   71) = (   0.2500000   0.3333333  -0.5000000), wk =   0.0277778
        k(   72) = (   0.2500000   0.4166667   0.4166667), wk =   0.0277778
        k(   73) = (   0.2500000   0.4166667  -0.5000000), wk =   0.0277778
        k(   74) = (   0.2500000  -0.5000000  -0.5000000), wk =   0.0069444
        k(   75) = (   0.3333333   0.3333333   0.3333333), wk =   0.0092593
        k(   76) = (   0.3333333   0.3333333   0.4166667), wk =   0.0277778
        k(   77) = (   0.3333333   0.3333333  -0.5000000), wk =   0.0138889
        k(   78) = (   0.3333333   0.4166667   0.4166667), wk =   0.0277778
        k(   79) = (   0.3333333   0.4166667  -0.5000000), wk =   0.0277778
        k(   80) = (   0.3333333  -0.5000000  -0.5000000), wk =   0.0069444
        k(   81) = (   0.4166667   0.4166667   0.4166667), wk =   0.0092593
        k(   82) = (   0.4166667   0.4166667  -0.5000000), wk =   0.0138889
        k(   83) = (   0.4166667  -0.5000000  -0.5000000), wk =   0.0069444
        k(   84) = (  -0.5000000  -0.5000000  -0.5000000), wk =   0.0011574

     Dense  grid:    30647 G-vectors     FFT dimensions: (  40,  40,  40)

     Estimated max dynamical RAM per process >      13.91 MB

     Estimated total dynamical RAM >     222.54 MB

     Initial potential from superposition of free atoms

     starting charge      19.8784, renormalised to      20.0000

     negative rho (up, down):  2.206E-07 0.000E+00
     Starting wfcs are random

     total cpu time spent up to now is        0.4 secs

     Self-consistent Calculation

     iteration #  1     ecut=    65.00 Ry     beta= 0.70
     ParO style diagonalization
     ethr =  5.00E-06,  avg # of iterations = 26.0

     total cpu time spent up to now is       10.5 secs

     total energy              =    -122.98882360 Ry
     estimated scf accuracy    <       0.06949888 Ry

     iteration #  2     ecut=    65.00 Ry     beta= 0.70
     ParO style diagonalization
     ethr =  3.47E-04,  avg # of iterations =  6.1

     total cpu time spent up to now is       12.2 secs

     total energy              =    -123.00898062 Ry
     estimated scf accuracy    <       0.03363432 Ry

     iteration #  3     ecut=    65.00 Ry     beta= 0.70
     ParO style diagonalization
     ethr =  1.68E-04,  avg # of iterations =  6.0

     total cpu time spent up to now is       14.0 secs

     total energy              =    -123.01647358 Ry
     estimated scf accuracy    <       0.00033092 Ry

     iteration #  4     ecut=    65.00 Ry     beta= 0.70
     ParO style diagonalization
     ethr =  1.65E-06,  avg # of iterations =  6.0

     total cpu time spent up to now is       15.4 secs

     total energy              =    -123.01653895 Ry
     estimated scf accuracy    <       0.00001660 Ry

     iteration #  5     ecut=    65.00 Ry     beta= 0.70
     ParO style diagonalization
     ethr =  8.30E-08,  avg # of iterations =  5.5

     total cpu time spent up to now is       17.4 secs

     total energy              =    -123.01654091 Ry
     estimated scf accuracy    <       0.00000113 Ry

     iteration #  6     ecut=    65.00 Ry     beta= 0.70
     ParO style diagonalization
     ethr =  5.64E-09,  avg # of iterations =  6.9

     total cpu time spent up to now is       20.2 secs

     total energy              =    -123.01654110 Ry
     estimated scf accuracy    <       0.00000020 Ry

     iteration #  7     ecut=    65.00 Ry     beta= 0.70
     ParO style diagonalization
     ethr =  1.00E-09,  avg # of iterations =  5.9

     total cpu time spent up to now is       28.5 secs

     total energy              =    -123.01654114 Ry
     estimated scf accuracy    <          1.4E-09 Ry

     iteration #  8     ecut=    65.00 Ry     beta= 0.70
     ParO style diagonalization
     ethr =  7.14E-12,  avg # of iterations =  7.0

     total cpu time spent up to now is       35.1 secs

     End of self-consistent calculation

          k = 0.0000 0.0000 0.0000 (  3887 PWs)   bands (ev):

    -8.2386  -4.6695  -4.6695  -4.5005  -4.5005  -4.5005   0.7906   4.1737
     4.1737   4.1737  12.4664  12.4664  12.5863  12.5863  12.5863  16.4093
    18.8585  18.8585  18.8585  20.6404

          k = 0.0000 0.0000 0.0833 (  3831 PWs)   bands (ev):

    -8.2243  -4.6688  -4.6610  -4.5043  -4.5043  -4.5001   0.7337   4.2030
     4.2030   4.2069  11.6763  12.4904  12.4904  12.5102  13.1663  16.8514
    18.6981  18.6981  18.8654  19.6367

          k = 0.0000 0.0000 0.1667 (  3831 PWs)   bands (ev):

    -8.1850  -4.6671  -4.6380  -4.5148  -4.5148  -4.4992   0.5790   4.2849
     4.2849   4.3185  10.5966  12.2290  12.2290  12.6393  13.9345  17.7865
    18.4960  18.5413  18.5413  18.8846

          k = 0.0000 0.0000 0.2500 (  3851 PWs)   bands (ev):

    -8.1297  -4.6646  -4.6070  -4.5291  -4.5291  -4.4979   0.3699   4.4020
     4.4020   4.5298   9.4793  11.8749  11.8749  12.8455  14.9740  17.4892
    18.6199  18.6199  18.7151  18.9118

          k = 0.0000 0.0000 0.3333 (  3824 PWs)   bands (ev):

    -8.0728  -4.6622  -4.5768  -4.5432  -4.5432  -4.4966   0.1645   4.5258
     4.5258   4.8434   8.4583  11.5253  11.5253  13.1060  16.2417  16.6528
    18.9402  18.9499  18.9499  19.4335

          k = 0.0000 0.0000 0.4167 (  3836 PWs)   bands (ev):

    -8.0298  -4.6604  -4.5553  -4.5535  -4.5535  -4.4957   0.0168   4.6214
     4.6214   5.2067   7.6511  11.2717  11.2717  13.3602  16.0517  17.6074
    18.9619  19.4968  19.4968  19.9091

          k = 0.0000 0.0000-0.5000 (  3804 PWs)   bands (ev):

    -8.0139  -4.6598  -4.5572  -4.5572  -4.5475  -4.4953  -0.0367   4.6576
     4.6576   5.4077   7.2992  11.1793  11.1793  13.4780  15.8179  18.5128
    18.9700  19.9437  20.2044  20.2044

          k = 0.0000 0.0833 0.0833 (  3831 PWs)   bands (ev):

    -8.2105  -4.6643  -4.6563  -4.5078  -4.5047  -4.5032   0.6902   4.0474
     4.2310   4.4068  11.5300  11.7810  12.4113  12.8448  13.5428  17.0419
    18.2917  18.5689  19.2275  20.1048

          k = 0.0000 0.0833 0.1667 (  3832 PWs)   bands (ev):

    -8.1723  -4.6610  -4.6345  -4.5172  -4.5144  -4.5027   0.5665   3.9763
     4.3093   4.6239  10.5117  11.6827  12.1902  13.0111  14.2178  17.2689
    17.9780  18.5934  19.3828  19.4804

          k = 0.0000 0.0833 0.2500 (  3834 PWs)   bands (ev):

    -8.1188  -4.6584  -4.6036  -4.5298  -4.5284  -4.5013   0.3895   4.0206
     4.4208   4.8408   9.4443  11.5360  11.8809  13.1562  15.1594  17.2868
    17.9037  18.0781  19.6213  19.8808

          k = 0.0000 0.0833 0.3333 (  3822 PWs)   bands (ev):

    -8.0636  -4.6559  -4.5731  -4.5423  -4.5422  -4.4999   0.2071   4.1667
     4.5384   5.0429   8.5070  11.3137  11.5671  13.3335  16.3187  16.8888
    18.0355  18.1010  19.7123  20.4535

          k = 0.0000 0.0833 0.4167 (  3835 PWs)   bands (ev):

    -8.0221  -4.6541  -4.5525  -4.5524  -4.5500  -4.4988   0.0719   4.3418
     4.6288   5.2051   7.8222  11.1183  11.3358  13.5189  16.3411  17.5973
    18.2613  18.6128  19.7663  20.0154

          k = 0.0000 0.0833-0.5000 (  3826 PWs)   bands (ev):

    -8.0067  -4.6534  -4.5562  -4.5544  -4.5434  -4.4984   0.0222   4.4240
     4.6630   5.2745   7.5571  11.0417  11.2509  13.6055  16.1497  18.2616
    18.3838  18.9431  19.7827  20.0474

          k = 0.0000 0.1667 0.1667 (  3838 PWs)   bands (ev):

    -8.1373  -4.6507  -4.6194  -4.5235  -4.5150  -4.5107   0.5223   3.7215
     4.3770   4.8888  10.0448  11.2421  12.0733  13.3858  14.8322  16.6802
    17.4712  19.3198  19.8000  19.9680

          k = 0.0000 0.1667 0.2500 (  3817 PWs)   bands (ev):

    -8.0885  -4.6447  -4.5909  -4.5316  -4.5268  -4.5105   0.4383   3.6067
     4.4728   5.0566   9.2938  11.0882  11.8901  13.6629  15.6186  16.4948
    17.2270  18.8098  19.9909  20.3997

          k = 0.0000 0.1667 0.3333 (  3817 PWs)   bands (ev):

    -8.0385  -4.6410  -4.5607  -4.5401  -4.5390  -4.5088   0.3292   3.6568
     4.5730   5.0873   8.6482  10.9518  11.6842  13.8071  16.3055  17.0197
    17.2408  18.1467  19.6129  19.7798

          k = 0.0000 0.1667 0.4167 (  3832 PWs)   bands (ev):

    -8.0010  -4.6387  -4.5498  -4.5448  -4.5379  -4.5074   0.2356   3.8175
     4.6494   4.9829   8.2593  10.8187  11.5217  13.8826  16.6769  17.4268
    17.7753  17.9642  19.1219  19.3508

          k = 0.0000 0.1667-0.5000 (  3824 PWs)   bands (ev):

    -7.9871  -4.6379  -4.5533  -4.5462  -4.5302  -4.5070   0.1990   3.9223
     4.6780   4.8935   8.1372  10.7617  11.4602  13.9117  16.8256  17.5644
    17.8571  17.9360  18.8714  20.2407

          k = 0.0000 0.2500 0.2500 (  3800 PWs)   bands (ev):

    -8.0466  -4.6331  -4.5667  -4.5334  -4.5266  -4.5210   0.4886   3.3129
     4.5458   5.0600   9.0455  10.8348  11.8832  14.0830  15.9796  16.3166
    16.7966  19.3439  19.5598  19.9606

          k = 0.0000 0.2500 0.3333 (  3822 PWs)   bands (ev):

    -8.0037  -4.6263  -4.5385  -4.5370  -4.5338  -4.5208   0.5099   3.2129
     4.6211   4.8423   8.8645  10.6870  11.8501  14.1952  16.0263  16.6482
    17.2086  18.7125  18.8382  19.5611

          k = 0.0000 0.2500 0.4167 (  3829 PWs)   bands (ev):

    -7.9718  -4.6225  -4.5461  -4.5342  -4.5192  -4.5160   0.5009   3.2983
     4.5109   4.6778   8.8115  10.5687  11.8078  14.1335  16.4010  16.7427
    17.6865  18.1792  18.4900  19.4466

          k = 0.0000 0.2500-0.5000 (  3806 PWs)   bands (ev):

    -7.9600  -4.6212  -4.5494  -4.5340  -4.5185  -4.5079   0.4918   3.3957
     4.3220   4.6989   8.8118  10.5161  11.7884  14.1004  16.6789  16.8705
    17.4936  17.8605  18.4231  20.5553

          k = 0.0000 0.3333 0.3333 (  3820 PWs)   bands (ev):

    -7.9685  -4.6163  -4.5355  -4.5313  -4.5279  -4.5110   0.7039   2.9367
     4.3948   4.6701   9.1229  10.5297  12.0213  14.1535  16.0586  16.3136
    17.8228  17.9957  18.2498  20.6434

          k = 0.0000 0.3333 0.4167 (  3822 PWs)   bands (ev):

    -7.9424  -4.6108  -4.5424  -4.5308  -4.5226  -4.4896   0.8449   2.8917
     3.9082   4.7065   9.3639  10.4180  12.1475  13.9304  16.1666  16.2608
    17.2847  17.9546  18.8031  20.5710

          k = 0.0000 0.3333-0.5000 (  3818 PWs)   bands (ev):

    -7.9328  -4.6090  -4.5455  -4.5301  -4.5205  -4.4815   0.8925   2.9627
     3.6471   4.7200   9.4744  10.3625  12.1931  13.8339  16.1800  16.3544
    16.9282  17.9330  19.2505  20.9678

          k = 0.0000 0.4167 0.4167 (  3816 PWs)   bands (ev):

    -7.9206  -4.6042  -4.5402  -4.5388  -4.5133  -4.4683   1.1958   2.6774
     3.3143   4.7279   9.8192  10.3345  12.4500  13.5345  15.9298  16.0259
    16.5734  18.7500  19.1257  21.5219

          k = 0.0000 0.4167-0.5000 (  3810 PWs)   bands (ev):

    -7.9127  -4.6021  -4.5426  -4.5385  -4.5097  -4.4603   1.3663   2.6822
     2.9770   4.7358  10.0265  10.2879  12.5782  13.3487  15.8278  16.0374
    16.2161  18.9822  19.6815  21.4068

          k = 0.0000-0.5000-0.5000 (  3836 PWs)   bands (ev):

    -7.9053  -4.5999  -4.5416  -4.5416  -4.5056  -4.4522   1.6872   2.5853
     2.5853   4.7416  10.2668  10.2668  12.7535  13.1059  15.7039  15.9305
    15.9305  19.8011  19.8011  21.6295

          k = 0.0833 0.0833 0.0833 (  3830 PWs)   bands (ev):

    -8.1971  -4.6557  -4.6557  -4.5078  -4.5072  -4.5072   0.6568   4.0784
     4.0784   4.5836  11.4435  11.7419  11.7419  13.4972  13.4972  17.2733
    18.1550  18.1550  19.7229  20.2827

          k = 0.0833 0.0833 0.1667 (  3831 PWs)   bands (ev):

    -8.1599  -4.6539  -4.6322  -4.5180  -4.5156  -4.5062   0.5586   3.9424
     4.1653   4.8092  10.4837  11.6040  11.7128  13.4202  14.3098  17.2682
    17.9511  18.3078  19.4876  20.1902

          k = 0.0833 0.0833 0.2500 (  3821 PWs)   bands (ev):

    -8.1079  -4.6515  -4.6007  -4.5326  -4.5260  -4.5047   0.4102   3.9302
     4.2899   4.9988   9.4596  11.3538  11.7142  13.4201  15.2979  17.0513
    17.6423  18.8127  19.0065  20.4234

          k = 0.0833 0.0833 0.3333 (  3823 PWs)   bands (ev):

    -8.0544  -4.6491  -4.5700  -4.5472  -4.5361  -4.5032   0.2497   4.0462
     4.4225   5.1253   8.5907  11.0562  11.6315  13.5250  16.4745  17.0891
    17.1106  19.0286  19.1467  19.9739

          k = 0.0833 0.0833 0.4167 (  3833 PWs)   bands (ev):

    -8.0142  -4.6473  -4.5578  -4.5482  -4.5429  -4.5021   0.1269   4.2263
     4.5255   5.1678   7.9946  10.8208  11.5299  13.6683  16.6451  17.2606
    17.6806  19.0365  19.6539  19.6833

          k = 0.0833 0.0833-0.5000 (  3822 PWs)   bands (ev):

    -7.9993  -4.6466  -4.5617  -4.5460  -4.5397  -4.5017   0.0812   4.3243
     4.5647   5.1615   7.7800  10.7321  11.4858  13.7379  16.4625  17.5348
    17.8628  19.6336  19.7521  20.1180

          k = 0.0833 0.1667 0.1667 (  3831 PWs)   bands (ev):

    -8.1257  -4.6417  -4.6188  -4.5244  -4.5150  -4.5149   0.5278   3.7569
     4.1727   5.0256  10.1305  11.1618  11.5839  13.7841  14.7160  17.0589
    17.5827  18.7199  20.0813  20.2086

          k = 0.0833 0.1667 0.2500 (  3817 PWs)   bands (ev):

    -8.0780  -4.6362  -4.5897  -4.5363  -4.5238  -4.5135   0.4629   3.6285
     4.2811   5.1349   9.4149  10.9508  11.5700  13.8955  15.5505  16.6587
    17.5785  18.8167  19.4998  20.2241

          k = 0.0833 0.1667 0.3333 (  3820 PWs)   bands (ev):

    -8.0291  -4.6329  -4.5589  -4.5498  -4.5301  -4.5120   0.3720   3.6569
     4.4056   5.0994   8.7891  10.6889  11.6402  13.9639  16.3769  16.6528
    17.7182  18.3973  18.8767  20.2842

          k = 0.0833 0.1667 0.4167 (  3826 PWs)   bands (ev):

    -7.9925  -4.6308  -4.5601  -4.5375  -4.5330  -4.5109   0.2904   3.8044
     4.5049   4.9409   8.4118  10.4599  11.6982  14.0303  16.4694  17.1305
    17.6101  18.6732  18.8027  20.1442

          k = 0.0833 0.1667-0.5000 (  3824 PWs)   bands (ev):

    -7.9789  -4.6300  -4.5639  -4.5357  -4.5281  -4.5104   0.2577   3.9072
     4.5449   4.8276   8.2921  10.3705  11.7167  14.0601  16.6634  16.9515
    17.4508  18.9774  19.3903  20.3035

          k = 0.0833 0.2500 0.2500 (  3814 PWs)   bands (ev):

    -8.0365  -4.6237  -4.5663  -4.5411  -4.5256  -4.5199   0.5212   3.3540
     4.3626   5.0831   9.2063  10.7033  11.5055  14.2595  15.9053  16.4778
    17.3856  18.4209  20.1307  20.2100

          k = 0.0833 0.2500 0.3333 (  3821 PWs)   bands (ev):

    -7.9941  -4.6169  -4.5497  -4.5385  -4.5281  -4.5202   0.5539   3.2490
     4.4587   4.8389   8.9925  10.4756  11.6124  14.3470  16.1240  16.6196
    17.7067  17.8379  19.4742  20.0912

          k = 0.0833 0.2500 0.4167 (  3819 PWs)   bands (ev):

    -7.9625  -4.6133  -4.5582  -4.5286  -4.5217  -4.5141   0.5551   3.3234
     4.4761   4.5609   8.8992  10.2399  11.7999  14.2882  16.1040  16.6635
    17.7335  18.4937  19.0623  19.7363

          k = 0.0833 0.2500-0.5000 (  3820 PWs)   bands (ev):

    -7.9509  -4.6121  -4.5615  -4.5261  -4.5236  -4.5062   0.5499   3.4152
     4.3047   4.5733   8.8846  10.1364  11.8895  14.2430  16.2284  16.3971
    18.1600  18.3498  18.9146  20.6133

          k = 0.0833 0.3333 0.3333 (  3823 PWs)   bands (ev):

    -7.9586  -4.6065  -4.5490  -4.5369  -4.5194  -4.5103   0.7514   2.9831
     4.3785   4.5481   9.1634  10.3532  11.6698  14.3437  16.2711  16.3829
    17.2846  18.1577  19.2940  20.7479

          k = 0.0833 0.3333 0.4167 (  3819 PWs)   bands (ev):

    -7.9323  -4.6010  -4.5532  -4.5370  -4.5186  -4.4890   0.8981   2.9351
     3.9176   4.5891   9.3373  10.1704  11.8668  14.1016  16.1021  16.2982
    17.4654  18.5494  19.1107  20.6437

          k = 0.0833 0.3333-0.5000 (  3824 PWs)   bands (ev):

    -7.9226  -4.5992  -4.5559  -4.5354  -4.5187  -4.4809   0.9489   3.0009
     3.6653   4.6079   9.4440  10.0453  11.9946  13.9533  16.0194  16.2477
    17.6720  18.3589  19.4521  21.0180

          k = 0.0833 0.4167 0.4167 (  3821 PWs)   bands (ev):

    -7.9099  -4.5942  -4.5488  -4.5446  -4.5153  -4.4680   1.2481   2.7275
     3.3444   4.6221   9.6806  10.1289  11.9568  13.7298  16.0148  16.1825
    17.1827  19.0166  19.3141  21.5940

          k = 0.0833 0.4167-0.5000 (  3814 PWs)   bands (ev):

    -7.9017  -4.5921  -4.5500  -4.5442  -4.5143  -4.4600   1.4187   2.7304
     3.0172   4.6345   9.8775  10.0412  12.0264  13.5377  15.9774  16.1892
    16.9669  19.1846  19.8557  21.4447

          k = 0.0833-0.5000-0.5000 (  3840 PWs)   bands (ev):

    -7.8940  -4.5898  -4.5474  -4.5474  -4.5130  -4.4521   1.7339   2.6368
     2.6368   4.6444  10.0514  10.0514  12.0257  13.3542  16.1323  16.1323
    16.5540  19.9697  19.9697  21.6621

          k = 0.1667 0.1667 0.1667 (  3809 PWs)   bands (ev):

    -8.0937  -4.6172  -4.6172  -4.5266  -4.5266  -4.5147   0.5364   3.8568
     3.8568   5.1668  10.2034  10.9268  10.9268  14.5072  14.5072  17.8412
    17.8412  17.9624  19.6960  20.5065

          k = 0.1667 0.1667 0.2500 (  3817 PWs)   bands (ev):

    -8.0490  -4.6150  -4.5843  -4.5424  -4.5284  -4.5150   0.5291   3.6370
     4.0018   5.1673   9.6735  10.5790  11.0440  14.3829  15.3632  17.2579
    18.1278  18.2108  19.3449  19.9940

          k = 0.1667 0.1667 0.3333 (  3819 PWs)   bands (ev):

    -8.0033  -4.6127  -4.5582  -4.5524  -4.5281  -4.5163   0.4956   3.5871
     4.1585   5.0118   9.1025  10.2112  11.4272  14.3757  15.9491  17.0625
    17.8100  18.2284  19.6948  19.7490

          k = 0.1667 0.1667 0.4167 (  3827 PWs)   bands (ev):

    -7.9692  -4.6108  -4.5698  -4.5321  -4.5239  -4.5181   0.4530   3.6880
     4.2823   4.7625   8.7560   9.9329  11.7561  14.4262  15.8995  16.7328
    18.0580  18.6752  19.9059  20.1158

          k = 0.1667 0.1667-0.5000 (  3810 PWs)   bands (ev):

    -7.9566  -4.6101  -4.5741  -4.5254  -4.5249  -4.5155   0.4335   3.7810
     4.3299   4.6144   8.6443   9.8294  11.8887  14.4557  15.8311  16.5333
    17.9524  19.8135  19.9715  20.4907

          k = 0.1667 0.2500 0.2500 (  3817 PWs)   bands (ev):

    -8.0087  -4.5982  -4.5656  -4.5500  -4.5378  -4.5138   0.6133   3.4707
     3.9955   5.0366   9.6045  10.3481  10.7658  14.7369  15.5557  17.2366
    17.8343  18.1942  19.7995  20.6245

          k = 0.1667 0.2500 0.3333 (  3824 PWs)   bands (ev):

    -7.9676  -4.5923  -4.5629  -4.5440  -4.5315  -4.5148   0.6822   3.3440
     4.1220   4.7567   9.2644   9.9666  11.1257  14.7834  15.9108  16.6465
    17.8080  18.6824  19.8572  20.6511

          k = 0.1667 0.2500 0.4167 (  3816 PWs)   bands (ev):

    -7.9370  -4.5893  -4.5741  -4.5389  -4.5181  -4.5102   0.7158   3.3798
     4.2353   4.4202   9.0638   9.6158  11.5548  14.7330  15.7368  16.3221
    18.4980  19.3309  19.5279  20.6393

          k = 0.1667 0.2500-0.5000 (  3818 PWs)   bands (ev):

    -7.9257  -4.5880  -4.5786  -4.5362  -4.5206  -4.5018   0.7233   3.4538
     4.2319   4.2861   9.0136   9.4722  11.7447  14.6707  15.6152  16.2241
    18.8421  19.5773  19.7929  20.7834

          k = 0.1667 0.3333 0.3333 (  3824 PWs)   bands (ev):

    -7.9313  -4.5810  -4.5656  -4.5516  -4.5157  -4.5090   0.8912   3.1157
     4.1961   4.3732   9.1679   9.8986  11.0437  14.7668  16.2469  16.2554
    17.8791  18.9466  20.4605  21.0671

          k = 0.1667 0.3333 0.4167 (  3823 PWs)   bands (ev):

    -7.9043  -4.5765  -4.5709  -4.5517  -4.5195  -4.4876   1.0557   3.0575
     3.9308   4.2982   9.1633   9.6211  11.2465  14.5044  16.1418  16.3226
    18.4008  19.4280  20.0424  20.8827

          k = 0.1667 0.3333-0.5000 (  3834 PWs)   bands (ev):

    -7.8944  -4.5762  -4.5726  -4.5496  -4.5222  -4.4793   1.1162   3.1074
     3.7044   4.3297   9.2967   9.3632  11.3699  14.3636  16.1663  16.2437
    18.9350  19.3195  20.0379  21.1631

          k = 0.1667 0.4167 0.4167 (  3821 PWs)   bands (ev):

    -7.8801  -4.5702  -4.5653  -4.5602  -4.5250  -4.4673   1.4026   2.8711
     3.4239   4.3543   9.2642   9.6131  11.0252  14.2301  16.3414  16.5477
    18.4253  19.7822  19.8615  21.8119

          k = 0.1667 0.4167-0.5000 (  3826 PWs)   bands (ev):

    -7.8712  -4.5687  -4.5649  -4.5594  -4.5288  -4.4594   1.5727   2.8684
     3.1288   4.3773   9.4380   9.4623  10.9606  14.1271  16.4630  16.5406
    18.4366  19.7694  20.3721  21.5510

          k = 0.1667-0.5000-0.5000 (  3844 PWs)   bands (ev):

    -7.8627  -4.5634  -4.5634  -4.5623  -4.5337  -4.4515   1.8702   2.7843
     2.7843   4.3965   9.5152   9.5152  10.7660  14.0503  16.6154  16.6154
    18.1734  20.4719  20.4719  21.7132

          k = 0.2500 0.2500 0.2500 (  3824 PWs)   bands (ev):

    -7.9701  -4.5663  -4.5663  -4.5529  -4.5529  -4.5119   0.7451   3.6424
     3.6424   4.8569   9.8725   9.8725  10.2984  15.4125  15.4125  16.5197
    18.9391  18.9391  19.1924  21.0277

          k = 0.2500 0.2500 0.3333 (  3829 PWs)   bands (ev):

    -7.9308  -4.5758  -4.5589  -4.5588  -4.5266  -4.5146   0.8800   3.4212
     3.8319   4.5609   9.4034   9.4482  10.6978  15.4081  15.6963  16.2255
    18.8005  19.5749  20.0589  20.7360

          k = 0.2500 0.2500 0.4167 (  3822 PWs)   bands (ev):

    -7.9015  -4.5871  -4.5587  -4.5553  -4.5203  -4.5020   0.9748   3.3819
     3.9852   4.2277   9.0594   9.1554  11.0672  15.3082  15.4564  16.3962
    19.4118  19.8379  20.4650  20.8287

          k = 0.2500 0.2500-0.5000 (  3832 PWs)   bands (ev):

    -7.8907  -4.5914  -4.5585  -4.5527  -4.5238  -4.4929   1.0070   3.4258
     4.0452   4.0494   8.9324   9.0606  11.2117  15.1490  15.4831  16.3891
    19.7947  20.3701  20.5524  21.0518

          k = 0.2500 0.3333 0.3333 (  3823 PWs)   bands (ev):

    -7.8933  -4.5826  -4.5711  -4.5423  -4.5207  -4.5075   1.1116   3.3131
     3.8383   4.2555   8.9960   9.3217  10.5307  15.3037  16.0519  16.3313
    19.2220  19.8834  20.9990  21.2561

          k = 0.2500 0.3333 0.4167 (  3820 PWs)   bands (ev):

    -7.8654  -4.5919  -4.5714  -4.5379  -4.5301  -4.4852   1.3085   3.2308
     3.9019   3.9625   8.7567   9.0946  10.5205  15.1213  16.2073  16.6599
    19.6247  20.3772  20.9819  21.3989

          k = 0.2500 0.3333-0.5000 (  3818 PWs)   bands (ev):

    -7.8551  -4.5960  -4.5689  -4.5369  -4.5355  -4.4765   1.3869   3.2515
     3.7163   4.0097   8.6789   8.9982  10.5246  15.0725  16.2665  16.7131
    20.2817  20.4567  20.8372  21.3844

          k = 0.2500 0.4167 0.4167 (  3812 PWs)   bands (ev):

    -7.8386  -4.5910  -4.5812  -4.5439  -4.5293  -4.4663   1.6488   3.0867
     3.5178   4.0282   8.6893   8.9747  10.0726  15.0678  16.7388  16.9556
    19.8114  20.6624  20.8740  22.1717

          k = 0.2500 0.4167-0.5000 (  3818 PWs)   bands (ev):

    -7.8286  -4.5916  -4.5806  -4.5521  -4.5272  -4.4584   1.8168   3.0742
     3.2815   4.0634   8.7224   8.9010   9.8872  15.0679  16.9380  17.0299
    20.0848  20.6183  21.1592  21.7034

          k = 0.2500-0.5000-0.5000 (  3832 PWs)   bands (ev):

    -7.8188  -4.5849  -4.5849  -4.5632  -4.5246  -4.4508   2.0817   3.0064
     3.0064   4.0916   8.8565   8.8565   9.5549  15.0815  17.1701  17.1701
    19.9445  21.2517  21.2517  21.7576

          k = 0.3333 0.3333 0.3333 (  3830 PWs)   bands (ev):

    -7.8546  -4.5902  -4.5902  -4.5331  -4.5062  -4.5062   1.3822   3.5351
     3.5351   4.0500   8.7701   8.7701  10.1302  15.6079  16.4624  16.4624
    20.3165  20.7789  20.7789  21.8320

          k = 0.3333 0.3333 0.4167 (  3816 PWs)   bands (ev):

    -7.8256  -4.6040  -4.5902  -4.5482  -4.5053  -4.4798   1.6323   3.3713
     3.7192   3.7852   8.3687   8.6553   9.8134  15.7536  16.5849  17.0013
    20.6038  21.2243  21.5978  21.6773

          k = 0.3333 0.3333-0.5000 (  3818 PWs)   bands (ev):

    -7.8149  -4.6090  -4.5876  -4.5565  -4.5050  -4.4702   1.7410   3.3498
     3.6300   3.7926   8.2200   8.6371   9.6802  15.8229  16.6352  17.1796
    21.2803  21.3605  21.5362  21.6450

          k = 0.3333 0.4167 0.4167 (  3815 PWs)   bands (ev):

    -7.7958  -4.6086  -4.6018  -4.5684  -4.4920  -4.4654   1.9600   3.3325
     3.5681   3.7364   8.1822   8.3715   9.2305  16.0978  17.1387  17.3157
    20.9964  21.4752  21.8484  22.5608

          k = 0.3333 0.4167-0.5000 (  3824 PWs)   bands (ev):

    -7.7848  -4.6114  -4.6012  -4.5795  -4.4900  -4.4573   2.1216   3.3046
     3.4194   3.7849   8.1062   8.3469   8.9599  16.2048  17.3100  17.5282
    21.4457  21.5748  21.8728  21.9570

          k = 0.3333-0.5000-0.5000 (  3808 PWs)   bands (ev):

    -7.7737  -4.6061  -4.6061  -4.5943  -4.4870  -4.4501   2.3334   3.2609
     3.2609   3.8167   8.2358   8.2358   8.5495  16.3093  17.6620  17.6620
    21.5455  21.7903  22.0819  22.0819

          k = 0.4167 0.4167 0.4167 (  3828 PWs)   bands (ev):

    -7.7638  -4.6167  -4.6167  -4.5918  -4.4648  -4.4648   2.2683   3.5306
     3.5400   3.5400   7.9319   7.9319   8.5713  16.9556  17.5729  17.5729
    21.5859  22.0765  22.0765  22.6312

          k = 0.4167 0.4167-0.5000 (  3812 PWs)   bands (ev):

    -7.7519  -4.6221  -4.6160  -4.6042  -4.4645  -4.4548   2.4169   3.4715
     3.4795   3.6240   7.7680   7.9364   8.2493  17.2220  17.6687  17.8801
    21.7934  22.0994  22.3592  22.3770

          k = 0.4167-0.5000-0.5000 (  3844 PWs)   bands (ev):

    -7.7397  -4.6214  -4.6214  -4.6180  -4.4595  -4.4496   2.5551   3.4772
     3.4772   3.6306   7.7827   7.7827   7.8627  17.5189  18.0110  18.0110
    21.7302  22.1619  22.4261  22.5374

          k =-0.5000-0.5000-0.5000 (  3840 PWs)   bands (ev):

    -7.7270  -4.6269  -4.6269  -4.6269  -4.4494  -4.4494   2.6473   3.5652
     3.5652   3.5652   7.6134   7.6134   7.6134  18.1407  18.1407  18.1407
    21.5103  22.2088  22.2088  22.6116

     the Fermi energy is     7.1963 ev

!    total energy              =    -123.01654114 Ry
     estimated scf accuracy    <          7.8E-11 Ry
     smearing contrib. (-TS)   =      -0.00000000 Ry
     internal energy E=F+TS    =    -123.01654114 Ry

     The total energy is F=E-TS. E is the sum of the following terms:
     one-electron contribution =     -28.47861066 Ry
     hartree contribution      =      24.64820097 Ry
     xc contribution           =     -18.04699233 Ry
     ewald contribution        =    -101.13913912 Ry

     convergence has been achieved in   8 iterations

     Writing all to output data dir out/mp-22875.save/
 
     init_run     :      0.32s CPU      0.36s WALL (       1 calls)
     electrons    :     20.35s CPU     34.70s WALL (       1 calls)

     Called by init_run:
     wfcinit      :      0.26s CPU      0.28s WALL (       1 calls)
     potinit      :      0.01s CPU      0.01s WALL (       1 calls)
     hinit0       :      0.02s CPU      0.04s WALL (       1 calls)

     Called by electrons:
     c_bands      :     19.19s CPU     33.35s WALL (       8 calls)
     sum_band     :      1.12s CPU      1.16s WALL (       8 calls)
     v_of_rho     :      0.03s CPU      0.03s WALL (       9 calls)
     mix_rho      :      0.00s CPU      0.00s WALL (       8 calls)

     Called by c_bands:
     init_us_2    :      0.17s CPU      0.19s WALL (    1428 calls)
     init_us_2:cp :      0.16s CPU      0.18s WALL (    1428 calls)
     paro_k       :     18.13s CPU     19.25s WALL (     672 calls)

     Called by paro_*:
     h_psi        :     14.51s CPU     15.38s WALL (   16261 calls)
     g_psi        :      0.21s CPU      0.22s WALL (  128053 calls)

     Called by h_psi:
     h_psi:calbec :      0.67s CPU      0.71s WALL (   16261 calls)
     vloc_psi     :     13.33s CPU     14.13s WALL (   16261 calls)
     add_vuspsi   :      0.40s CPU      0.43s WALL (   16261 calls)

     General routines
     calbec       :      0.64s CPU      0.68s WALL (   16261 calls)
     fft          :      0.02s CPU      0.03s WALL (      89 calls)
     ffts         :      0.00s CPU      0.00s WALL (       8 calls)
     fftw         :     13.33s CPU     14.09s WALL (  239922 calls)
 
     Parallel routines
 
     PWSCF        :     21.19s CPU     36.68s WALL

 
   This run was terminated on:  15:12:19   8Apr2024            

=------------------------------------------------------------------------------=
   JOB DONE.
=------------------------------------------------------------------------------=
