 vasp.5.4.4.18Apr17-6-g9f103f2a35 (build Aug 24 2017 11:22:49) complex          
  
 executed on             LinuxIFC date 2023.12.25  13:07:46
 running on    8 total cores
 distrk:  each k-point on    8 cores,    1 groups
 distr:  one band on NCORES_PER_BAND=   1 cores,    8 groups


--------------------------------------------------------------------------------------------------------


 INCAR:
 POTCAR:    PAW_PBE Tl_d 06Sep2000                
 POTCAR:    PAW_PBE Cl 06Sep2000                  

 ----------------------------------------------------------------------------- 
|                                                                             |
|           W    W    AA    RRRRR   N    N  II  N    N   GGGG   !!!           |
|           W    W   A  A   R    R  NN   N  II  NN   N  G    G  !!!           |
|           W    W  A    A  R    R  N N  N  II  N N  N  G       !!!           |
|           W WW W  AAAAAA  RRRRR   N  N N  II  N  N N  G  GGG   !            |
|           WW  WW  A    A  R   R   N   NN  II  N   NN  G    G                |
|           W    W  A    A  R    R  N    N  II  N    N   GGGG   !!!           |
|                                                                             |
|      For optimal performance we recommend to set                            |
|        NCORE= 4 - approx SQRT( number of cores)                             |
|      NCORE specifies how many cores store one orbital (NPAR=cpu/NCORE).     |
|      This setting can  greatly improve the performance of VASP for DFT.     |
|      The default,   NCORE=1            might be grossly inefficient         |
|      on modern multi-core architectures or massively parallel machines.     |
|      Do your own testing !!!!                                               |
|      Unfortunately you need to use the default for GW and RPA calculations. |
|      (for HF NCORE is supported but not extensively tested yet)             |
|                                                                             |
 ----------------------------------------------------------------------------- 

 POTCAR:    PAW_PBE Tl_d 06Sep2000                
   VRHFIN =Tl:                                                                  
   LEXCH  = PE                                                                  
   EATOM  =  1391.8071 eV,  102.2949 Ry                                         
                                                                                
   TITEL  = PAW_PBE Tl_d 06Sep2000                                              
   LULTRA =        F    use ultrasoft PP ?                                      
   IUNSCR =        1    unscreen: 0-lin 1-nonlin 2-no                           
   RPACOR =    2.200    partial core radius                                     
   POMASS =  204.380; ZVAL   =   13.000    mass and valenz                      
   RCORE  =    2.500    outmost cutoff radius                                   
   RWIGS  =    3.260; RWIGS  =    1.725    wigner-seitz radius (au A)           
   ENMAX  =  237.053; ENMIN  =  177.789 eV                                      
   ICORE  =        3    local potential                                         
   LCOR   =        T    correct aug charges                                     
   LPAW   =        T    paw PP                                                  
   EAUG   =  395.511                                                            
   DEXC   =    0.000                                                            
   RMAX   =    2.553    core radius for proj-oper                               
   RAUG   =    1.300    factor for augmentation sphere                          
   RDEP   =    2.630    radius for radial grids                                 
   RDEPT  =    2.133    core radius for aug-charge                              
                                                                                
   Atomic configuration                                                         
   16 entries                                                                   
     n  l   j            E        occ.                                          
     1  0  0.50    -85594.3226   2.0000                                         
     2  0  0.50    -15237.2711   2.0000                                         
     2  1  1.50    -13100.9674   6.0000                                         
     3  0  0.50     -3637.0868   2.0000                                         
     3  1  1.50     -3022.5362   6.0000                                         
     3  2  2.50     -2387.1749  10.0000                                         
     4  0  0.50      -811.8534   2.0000                                         
     4  1  1.50      -610.4868   6.0000                                         
     4  2  2.50      -374.8241  10.0000                                         
     4  3  3.50      -114.0438  14.0000                                         
     5  0  0.50      -130.9408   2.0000                                         
     5  1  1.50       -76.0548   6.0000                                         
     5  2  2.50       -15.4864  10.0000                                         
     6  0  0.50        -9.5437   2.0000                                         
     6  1  1.50        -2.3700   1.0000                                         
     5  3  2.50        -2.7212   0.0000                                         
   Description                                                                  
     l       E           TYP  RCUT    TYP  RCUT                                 
     2    -15.4863948     23  2.500                                             
     2    -16.8469774     23  2.500                                             
     0     -9.5436777     23  2.500                                             
     0     13.6058260     23  2.500                                             
     1     -2.3700287     23  2.500                                             
     1     13.6058260     23  2.500                                             
     3     -1.3605826      7  2.500                                             
  local pseudopotential read in
  partial core-charges read in
  partial kinetic energy density read in
  atomic valenz-charges read in
  non local Contribution for L=           2  read in
    real space projection operators read in
  non local Contribution for L=           2  read in
    real space projection operators read in
  non local Contribution for L=           0  read in
    real space projection operators read in
  non local Contribution for L=           0  read in
    real space projection operators read in
  non local Contribution for L=           1  read in
    real space projection operators read in
  non local Contribution for L=           1  read in
    real space projection operators read in
    PAW grid and wavefunctions read in
 
   number of l-projection  operators is LMAX  =           6
   number of lm-projection operators is LMMAX =          18
 
 POTCAR:    PAW_PBE Cl 06Sep2000                  
   VRHFIN =Cl: s2p5                                                             
   LEXCH  = PE                                                                  
   EATOM  =   409.7259 eV,   30.1140 Ry                                         
                                                                                
   TITEL  = PAW_PBE Cl 06Sep2000                                                
   LULTRA =        F    use ultrasoft PP ?                                      
   IUNSCR =        1    unscreen: 0-lin 1-nonlin 2-no                           
   RPACOR =    1.500    partial core radius                                     
   POMASS =   35.453; ZVAL   =    7.000    mass and valenz                      
   RCORE  =    1.900    outmost cutoff radius                                   
   RWIGS  =    2.100; RWIGS  =    1.111    wigner-seitz radius (au A)           
   ENMAX  =  262.472; ENMIN  =  196.854 eV                                      
   ICORE  =        2    local potential                                         
   LCOR   =        T    correct aug charges                                     
   LPAW   =        T    paw PP                                                  
   EAUG   =  356.192                                                            
   DEXC   =    0.000                                                            
   RMAX   =    1.945    core radius for proj-oper                               
   RAUG   =    1.300    factor for augmentation sphere                          
   RDEP   =    2.020    radius for radial grids                                 
   RDEPT  =    1.678    core radius for aug-charge                              
                                                                                
   Atomic configuration                                                         
    6 entries                                                                   
     n  l   j            E        occ.                                          
     1  0  0.50     -2751.1850   2.0000                                         
     2  0  0.50      -252.6861   2.0000                                         
     2  1  1.50      -191.6157   6.0000                                         
     3  0  0.50       -20.6916   2.0000                                         
     3  1  0.50        -8.5949   5.0000                                         
     3  2  1.50        -8.1635   0.0000                                         
   Description                                                                  
     l       E           TYP  RCUT    TYP  RCUT                                 
     0    -20.6915656     23  1.900                                             
     0    -22.0521482     23  1.900                                             
     1     -8.5948577     23  1.900                                             
     1     -5.3847331     23  1.900                                             
     2     -8.1634956     23  1.900                                             
  local pseudopotential read in
  partial core-charges read in
  partial kinetic energy density read in
  atomic valenz-charges read in
  non local Contribution for L=           0  read in
    real space projection operators read in
  non local Contribution for L=           0  read in
    real space projection operators read in
  non local Contribution for L=           1  read in
    real space projection operators read in
  non local Contribution for L=           1  read in
    real space projection operators read in
    PAW grid and wavefunctions read in
 
   number of l-projection  operators is LMAX  =           4
   number of lm-projection operators is LMMAX =           8
 
  PAW_PBE Tl_d 06Sep2000                :
 energy of atom  1       EATOM=-1391.8071
 kinetic energy error for atom=    0.0039 (will be added to EATOM!!)
  PAW_PBE Cl 06Sep2000                  :
 energy of atom  2       EATOM= -409.7259
 kinetic energy error for atom=    0.0023 (will be added to EATOM!!)
 
 
 POSCAR: Tl1 Cl1                                 
  positions in direct lattice
  No initial velocities read in
 exchange correlation table for  LEXCH =        8
   RHO(1)=    0.500       N(1)  =     2000
   RHO(2)=  100.500       N(2)  =     4000
 


--------------------------------------------------------------------------------------------------------


 ion  position               nearest neighbor table
   1  0.000  0.000  0.000-   2 3.32   2 3.32   2 3.32   2 3.32   2 3.32   2 3.32   2 3.32   2 3.32

   2  0.500  0.500  0.500-   1 3.32   1 3.32   1 3.32   1 3.32   1 3.32   1 3.32   1 3.32   1 3.32

 
  LATTYP: Found a simple cubic cell.
 ALAT       =     3.8374670852
  
  Lattice vectors:
  
 A1 = (   3.8374670852,   0.0000000000,   0.0000000000)
 A2 = (   0.0000000000,   3.8374670852,   0.0000000000)
 A3 = (   0.0000000000,   0.0000000000,   3.8374670852)


Analysis of symmetry for initial positions (statically):
=====================================================================
 Subroutine PRICEL returns:
 Original cell was already a primitive cell.
 

 Routine SETGRP: Setting up the symmetry group for a 
 simple cubic supercell.


 Subroutine GETGRP returns: Found  6 space group operations
 (whereof  6 operations were pure point group operations)
 out of a pool of 48 trial point group operations.


The static configuration has the point symmetry C_3v.


Analysis of symmetry for dynamics (positions and initial velocities):
=====================================================================
 Subroutine PRICEL returns:
 Original cell was already a primitive cell.
 

 Routine SETGRP: Setting up the symmetry group for a 
 simple cubic supercell.


 Subroutine GETGRP returns: Found  6 space group operations
 (whereof  6 operations were pure point group operations)
 out of a pool of 48 trial point group operations.


The dynamic configuration has the point symmetry C_3v.


 Subroutine INISYM returns: Found  6 space group operations
 (whereof  6 operations are pure point group operations),
 and found     1 'primitive' translations

 
 
 KPOINTS: pymatgen with grid density = 3000 / numb

Automatic generation of k-mesh.
Space group operators:
 irot       det(A)        alpha          n_x          n_y          n_z        tau_x        tau_y        tau_z
    1     1.000000     0.000000     1.000000     0.000000     0.000000     0.000000     0.000000     0.000000
    2     1.000000   120.000000    -0.577350    -0.577350    -0.577350     0.000000     0.000000     0.000000
    3     1.000000   120.000000     0.577350     0.577350     0.577350     0.000000     0.000000     0.000000
    4    -1.000000   180.000000     0.000000    -0.707107     0.707107     0.000000     0.000000     0.000000
    5    -1.000000   180.000000     0.707107    -0.707107     0.000000     0.000000     0.000000     0.000000
    6    -1.000000   180.000000     0.707107     0.000000    -0.707107     0.000000     0.000000     0.000000
 
 Subroutine IBZKPT returns following result:
 ===========================================
 
 Found    189 irreducible k-points:
 
 Following reciprocal coordinates:
            Coordinates               Weight
  0.000000  0.000000  0.000000      1.000000
  0.083333  0.000000  0.000000      6.000000
  0.166667  0.000000  0.000000      6.000000
  0.250000  0.000000  0.000000      6.000000
  0.333333  0.000000  0.000000      6.000000
  0.416667  0.000000  0.000000      6.000000
  0.500000  0.000000  0.000000      3.000000
  0.083333  0.083333  0.000000      6.000000
  0.166667  0.083333  0.000000     12.000000
  0.250000  0.083333  0.000000     12.000000
  0.333333  0.083333  0.000000     12.000000
  0.416667  0.083333  0.000000     12.000000
  0.500000  0.083333  0.000000     12.000000
 -0.416667  0.083333  0.000000     12.000000
 -0.333333  0.083333  0.000000     12.000000
 -0.250000  0.083333  0.000000     12.000000
 -0.166667  0.083333  0.000000     12.000000
 -0.083333  0.083333  0.000000      6.000000
  0.166667  0.166667  0.000000      6.000000
  0.250000  0.166667  0.000000     12.000000
  0.333333  0.166667  0.000000     12.000000
  0.416667  0.166667  0.000000     12.000000
  0.500000  0.166667  0.000000     12.000000
 -0.416667  0.166667  0.000000     12.000000
 -0.333333  0.166667  0.000000     12.000000
 -0.250000  0.166667  0.000000     12.000000
 -0.166667  0.166667  0.000000      6.000000
  0.250000  0.250000  0.000000      6.000000
  0.333333  0.250000  0.000000     12.000000
  0.416667  0.250000  0.000000     12.000000
  0.500000  0.250000  0.000000     12.000000
 -0.416667  0.250000  0.000000     12.000000
 -0.333333  0.250000  0.000000     12.000000
 -0.250000  0.250000  0.000000      6.000000
  0.333333  0.333333  0.000000      6.000000
  0.416667  0.333333  0.000000     12.000000
  0.500000  0.333333  0.000000     12.000000
 -0.416667  0.333333  0.000000     12.000000
 -0.333333  0.333333  0.000000      6.000000
  0.416667  0.416667  0.000000      6.000000
  0.500000  0.416667  0.000000     12.000000
 -0.416667  0.416667  0.000000      6.000000
  0.500000  0.500000  0.000000      3.000000
  0.083333  0.083333  0.083333      2.000000
  0.166667  0.083333  0.083333      6.000000
  0.250000  0.083333  0.083333      6.000000
  0.333333  0.083333  0.083333      6.000000
  0.416667  0.083333  0.083333      6.000000
  0.500000  0.083333  0.083333      6.000000
 -0.416667  0.083333  0.083333      6.000000
 -0.333333  0.083333  0.083333      6.000000
 -0.250000  0.083333  0.083333      6.000000
 -0.166667  0.083333  0.083333      6.000000
 -0.083333  0.083333  0.083333      6.000000
  0.166667  0.166667  0.083333      6.000000
  0.250000  0.166667  0.083333     12.000000
  0.333333  0.166667  0.083333     12.000000
  0.416667  0.166667  0.083333     12.000000
  0.500000  0.166667  0.083333     12.000000
 -0.416667  0.166667  0.083333     12.000000
 -0.333333  0.166667  0.083333     12.000000
 -0.250000  0.166667  0.083333     12.000000
 -0.166667  0.166667  0.083333     12.000000
 -0.083333  0.166667  0.083333     12.000000
  0.250000  0.250000  0.083333      6.000000
  0.333333  0.250000  0.083333     12.000000
  0.416667  0.250000  0.083333     12.000000
  0.500000  0.250000  0.083333     12.000000
 -0.416667  0.250000  0.083333     12.000000
 -0.333333  0.250000  0.083333     12.000000
 -0.250000  0.250000  0.083333     12.000000
 -0.166667  0.250000  0.083333     12.000000
 -0.083333  0.250000  0.083333     12.000000
  0.333333  0.333333  0.083333      6.000000
  0.416667  0.333333  0.083333     12.000000
  0.500000  0.333333  0.083333     12.000000
 -0.416667  0.333333  0.083333     12.000000
 -0.333333  0.333333  0.083333     12.000000
 -0.250000  0.333333  0.083333     12.000000
 -0.166667  0.333333  0.083333     12.000000
 -0.083333  0.333333  0.083333     12.000000
  0.416667  0.416667  0.083333      6.000000
  0.500000  0.416667  0.083333     12.000000
 -0.416667  0.416667  0.083333     12.000000
 -0.333333  0.416667  0.083333     12.000000
 -0.250000  0.416667  0.083333     12.000000
 -0.166667  0.416667  0.083333     12.000000
 -0.083333  0.416667  0.083333     12.000000
  0.500000  0.500000  0.083333      6.000000
 -0.416667  0.500000  0.083333     12.000000
 -0.333333  0.500000  0.083333     12.000000
 -0.250000  0.500000  0.083333     12.000000
 -0.166667  0.500000  0.083333     12.000000
 -0.083333  0.500000  0.083333      6.000000
 -0.416667 -0.416667  0.083333      6.000000
 -0.333333 -0.416667  0.083333     12.000000
 -0.250000 -0.416667  0.083333     12.000000
 -0.166667 -0.416667  0.083333     12.000000
 -0.333333 -0.333333  0.083333      6.000000
 -0.250000 -0.333333  0.083333     12.000000
 -0.166667 -0.333333  0.083333     12.000000
 -0.250000 -0.250000  0.083333      6.000000
 -0.166667 -0.250000  0.083333     12.000000
 -0.166667 -0.166667  0.083333      6.000000
  0.166667  0.166667  0.166667      2.000000
  0.250000  0.166667  0.166667      6.000000
  0.333333  0.166667  0.166667      6.000000
  0.416667  0.166667  0.166667      6.000000
  0.500000  0.166667  0.166667      6.000000
 -0.416667  0.166667  0.166667      6.000000
 -0.333333  0.166667  0.166667      6.000000
 -0.250000  0.166667  0.166667      6.000000
 -0.166667  0.166667  0.166667      6.000000
  0.250000  0.250000  0.166667      6.000000
  0.333333  0.250000  0.166667     12.000000
  0.416667  0.250000  0.166667     12.000000
  0.500000  0.250000  0.166667     12.000000
 -0.416667  0.250000  0.166667     12.000000
 -0.333333  0.250000  0.166667     12.000000
 -0.250000  0.250000  0.166667     12.000000
 -0.166667  0.250000  0.166667     12.000000
  0.333333  0.333333  0.166667      6.000000
  0.416667  0.333333  0.166667     12.000000
  0.500000  0.333333  0.166667     12.000000
 -0.416667  0.333333  0.166667     12.000000
 -0.333333  0.333333  0.166667     12.000000
 -0.250000  0.333333  0.166667     12.000000
 -0.166667  0.333333  0.166667     12.000000
  0.416667  0.416667  0.166667      6.000000
  0.500000  0.416667  0.166667     12.000000
 -0.416667  0.416667  0.166667     12.000000
 -0.333333  0.416667  0.166667     12.000000
 -0.250000  0.416667  0.166667     12.000000
 -0.166667  0.416667  0.166667     12.000000
  0.500000  0.500000  0.166667      6.000000
 -0.416667  0.500000  0.166667     12.000000
 -0.333333  0.500000  0.166667     12.000000
 -0.250000  0.500000  0.166667     12.000000
 -0.166667  0.500000  0.166667      6.000000
 -0.416667 -0.416667  0.166667      6.000000
 -0.333333 -0.416667  0.166667     12.000000
 -0.250000 -0.416667  0.166667     12.000000
 -0.333333 -0.333333  0.166667      6.000000
 -0.250000 -0.333333  0.166667     12.000000
 -0.250000 -0.250000  0.166667      6.000000
  0.250000  0.250000  0.250000      2.000000
  0.333333  0.250000  0.250000      6.000000
  0.416667  0.250000  0.250000      6.000000
  0.500000  0.250000  0.250000      6.000000
 -0.416667  0.250000  0.250000      6.000000
 -0.333333  0.250000  0.250000      6.000000
 -0.250000  0.250000  0.250000      6.000000
  0.333333  0.333333  0.250000      6.000000
  0.416667  0.333333  0.250000     12.000000
  0.500000  0.333333  0.250000     12.000000
 -0.416667  0.333333  0.250000     12.000000
 -0.333333  0.333333  0.250000     12.000000
 -0.250000  0.333333  0.250000     12.000000
  0.416667  0.416667  0.250000      6.000000
  0.500000  0.416667  0.250000     12.000000
 -0.416667  0.416667  0.250000     12.000000
 -0.333333  0.416667  0.250000     12.000000
 -0.250000  0.416667  0.250000     12.000000
  0.500000  0.500000  0.250000      6.000000
 -0.416667  0.500000  0.250000     12.000000
 -0.333333  0.500000  0.250000     12.000000
 -0.250000  0.500000  0.250000      6.000000
 -0.416667 -0.416667  0.250000      6.000000
 -0.333333 -0.416667  0.250000     12.000000
 -0.333333 -0.333333  0.250000      6.000000
  0.333333  0.333333  0.333333      2.000000
  0.416667  0.333333  0.333333      6.000000
  0.500000  0.333333  0.333333      6.000000
 -0.416667  0.333333  0.333333      6.000000
 -0.333333  0.333333  0.333333      6.000000
  0.416667  0.416667  0.333333      6.000000
  0.500000  0.416667  0.333333     12.000000
 -0.416667  0.416667  0.333333     12.000000
 -0.333333  0.416667  0.333333     12.000000
  0.500000  0.500000  0.333333      6.000000
 -0.416667  0.500000  0.333333     12.000000
 -0.333333  0.500000  0.333333      6.000000
 -0.416667 -0.416667  0.333333      6.000000
  0.416667  0.416667  0.416667      2.000000
  0.500000  0.416667  0.416667      6.000000
 -0.416667  0.416667  0.416667      6.000000
  0.500000  0.500000  0.416667      6.000000
 -0.416667  0.500000  0.416667      6.000000
  0.500000  0.500000  0.500000      1.000000
 
 Following cartesian coordinates:
            Coordinates               Weight
  0.000000  0.000000  0.000000      1.000000
  0.021716  0.000000  0.000000      6.000000
  0.043431  0.000000  0.000000      6.000000
  0.065147  0.000000  0.000000      6.000000
  0.086863  0.000000  0.000000      6.000000
  0.108579  0.000000  0.000000      6.000000
  0.130294  0.000000  0.000000      3.000000
  0.021716  0.021716  0.000000      6.000000
  0.043431  0.021716  0.000000     12.000000
  0.065147  0.021716  0.000000     12.000000
  0.086863  0.021716  0.000000     12.000000
  0.108579  0.021716  0.000000     12.000000
  0.130294  0.021716  0.000000     12.000000
 -0.108579  0.021716  0.000000     12.000000
 -0.086863  0.021716  0.000000     12.000000
 -0.065147  0.021716  0.000000     12.000000
 -0.043431  0.021716  0.000000     12.000000
 -0.021716  0.021716  0.000000      6.000000
  0.043431  0.043431  0.000000      6.000000
  0.065147  0.043431  0.000000     12.000000
  0.086863  0.043431  0.000000     12.000000
  0.108579  0.043431  0.000000     12.000000
  0.130294  0.043431  0.000000     12.000000
 -0.108579  0.043431  0.000000     12.000000
 -0.086863  0.043431  0.000000     12.000000
 -0.065147  0.043431  0.000000     12.000000
 -0.043431  0.043431  0.000000      6.000000
  0.065147  0.065147  0.000000      6.000000
  0.086863  0.065147  0.000000     12.000000
  0.108579  0.065147  0.000000     12.000000
  0.130294  0.065147  0.000000     12.000000
 -0.108579  0.065147  0.000000     12.000000
 -0.086863  0.065147  0.000000     12.000000
 -0.065147  0.065147  0.000000      6.000000
  0.086863  0.086863  0.000000      6.000000
  0.108579  0.086863  0.000000     12.000000
  0.130294  0.086863  0.000000     12.000000
 -0.108579  0.086863  0.000000     12.000000
 -0.086863  0.086863  0.000000      6.000000
  0.108579  0.108579  0.000000      6.000000
  0.130294  0.108579  0.000000     12.000000
 -0.108579  0.108579  0.000000      6.000000
  0.130294  0.130294  0.000000      3.000000
  0.021716  0.021716  0.021716      2.000000
  0.043431  0.021716  0.021716      6.000000
  0.065147  0.021716  0.021716      6.000000
  0.086863  0.021716  0.021716      6.000000
  0.108579  0.021716  0.021716      6.000000
  0.130294  0.021716  0.021716      6.000000
 -0.108579  0.021716  0.021716      6.000000
 -0.086863  0.021716  0.021716      6.000000
 -0.065147  0.021716  0.021716      6.000000
 -0.043431  0.021716  0.021716      6.000000
 -0.021716  0.021716  0.021716      6.000000
  0.043431  0.043431  0.021716      6.000000
  0.065147  0.043431  0.021716     12.000000
  0.086863  0.043431  0.021716     12.000000
  0.108579  0.043431  0.021716     12.000000
  0.130294  0.043431  0.021716     12.000000
 -0.108579  0.043431  0.021716     12.000000
 -0.086863  0.043431  0.021716     12.000000
 -0.065147  0.043431  0.021716     12.000000
 -0.043431  0.043431  0.021716     12.000000
 -0.021716  0.043431  0.021716     12.000000
  0.065147  0.065147  0.021716      6.000000
  0.086863  0.065147  0.021716     12.000000
  0.108579  0.065147  0.021716     12.000000
  0.130294  0.065147  0.021716     12.000000
 -0.108579  0.065147  0.021716     12.000000
 -0.086863  0.065147  0.021716     12.000000
 -0.065147  0.065147  0.021716     12.000000
 -0.043431  0.065147  0.021716     12.000000
 -0.021716  0.065147  0.021716     12.000000
  0.086863  0.086863  0.021716      6.000000
  0.108579  0.086863  0.021716     12.000000
  0.130294  0.086863  0.021716     12.000000
 -0.108579  0.086863  0.021716     12.000000
 -0.086863  0.086863  0.021716     12.000000
 -0.065147  0.086863  0.021716     12.000000
 -0.043431  0.086863  0.021716     12.000000
 -0.021716  0.086863  0.021716     12.000000
  0.108579  0.108579  0.021716      6.000000
  0.130294  0.108579  0.021716     12.000000
 -0.108579  0.108579  0.021716     12.000000
 -0.086863  0.108579  0.021716     12.000000
 -0.065147  0.108579  0.021716     12.000000
 -0.043431  0.108579  0.021716     12.000000
 -0.021716  0.108579  0.021716     12.000000
  0.130294  0.130294  0.021716      6.000000
 -0.108579  0.130294  0.021716     12.000000
 -0.086863  0.130294  0.021716     12.000000
 -0.065147  0.130294  0.021716     12.000000
 -0.043431  0.130294  0.021716     12.000000
 -0.021716  0.130294  0.021716      6.000000
 -0.108579 -0.108579  0.021716      6.000000
 -0.086863 -0.108579  0.021716     12.000000
 -0.065147 -0.108579  0.021716     12.000000
 -0.043431 -0.108579  0.021716     12.000000
 -0.086863 -0.086863  0.021716      6.000000
 -0.065147 -0.086863  0.021716     12.000000
 -0.043431 -0.086863  0.021716     12.000000
 -0.065147 -0.065147  0.021716      6.000000
 -0.043431 -0.065147  0.021716     12.000000
 -0.043431 -0.043431  0.021716      6.000000
  0.043431  0.043431  0.043431      2.000000
  0.065147  0.043431  0.043431      6.000000
  0.086863  0.043431  0.043431      6.000000
  0.108579  0.043431  0.043431      6.000000
  0.130294  0.043431  0.043431      6.000000
 -0.108579  0.043431  0.043431      6.000000
 -0.086863  0.043431  0.043431      6.000000
 -0.065147  0.043431  0.043431      6.000000
 -0.043431  0.043431  0.043431      6.000000
  0.065147  0.065147  0.043431      6.000000
  0.086863  0.065147  0.043431     12.000000
  0.108579  0.065147  0.043431     12.000000
  0.130294  0.065147  0.043431     12.000000
 -0.108579  0.065147  0.043431     12.000000
 -0.086863  0.065147  0.043431     12.000000
 -0.065147  0.065147  0.043431     12.000000
 -0.043431  0.065147  0.043431     12.000000
  0.086863  0.086863  0.043431      6.000000
  0.108579  0.086863  0.043431     12.000000
  0.130294  0.086863  0.043431     12.000000
 -0.108579  0.086863  0.043431     12.000000
 -0.086863  0.086863  0.043431     12.000000
 -0.065147  0.086863  0.043431     12.000000
 -0.043431  0.086863  0.043431     12.000000
  0.108579  0.108579  0.043431      6.000000
  0.130294  0.108579  0.043431     12.000000
 -0.108579  0.108579  0.043431     12.000000
 -0.086863  0.108579  0.043431     12.000000
 -0.065147  0.108579  0.043431     12.000000
 -0.043431  0.108579  0.043431     12.000000
  0.130294  0.130294  0.043431      6.000000
 -0.108579  0.130294  0.043431     12.000000
 -0.086863  0.130294  0.043431     12.000000
 -0.065147  0.130294  0.043431     12.000000
 -0.043431  0.130294  0.043431      6.000000
 -0.108579 -0.108579  0.043431      6.000000
 -0.086863 -0.108579  0.043431     12.000000
 -0.065147 -0.108579  0.043431     12.000000
 -0.086863 -0.086863  0.043431      6.000000
 -0.065147 -0.086863  0.043431     12.000000
 -0.065147 -0.065147  0.043431      6.000000
  0.065147  0.065147  0.065147      2.000000
  0.086863  0.065147  0.065147      6.000000
  0.108579  0.065147  0.065147      6.000000
  0.130294  0.065147  0.065147      6.000000
 -0.108579  0.065147  0.065147      6.000000
 -0.086863  0.065147  0.065147      6.000000
 -0.065147  0.065147  0.065147      6.000000
  0.086863  0.086863  0.065147      6.000000
  0.108579  0.086863  0.065147     12.000000
  0.130294  0.086863  0.065147     12.000000
 -0.108579  0.086863  0.065147     12.000000
 -0.086863  0.086863  0.065147     12.000000
 -0.065147  0.086863  0.065147     12.000000
  0.108579  0.108579  0.065147      6.000000
  0.130294  0.108579  0.065147     12.000000
 -0.108579  0.108579  0.065147     12.000000
 -0.086863  0.108579  0.065147     12.000000
 -0.065147  0.108579  0.065147     12.000000
  0.130294  0.130294  0.065147      6.000000
 -0.108579  0.130294  0.065147     12.000000
 -0.086863  0.130294  0.065147     12.000000
 -0.065147  0.130294  0.065147      6.000000
 -0.108579 -0.108579  0.065147      6.000000
 -0.086863 -0.108579  0.065147     12.000000
 -0.086863 -0.086863  0.065147      6.000000
  0.086863  0.086863  0.086863      2.000000
  0.108579  0.086863  0.086863      6.000000
  0.130294  0.086863  0.086863      6.000000
 -0.108579  0.086863  0.086863      6.000000
 -0.086863  0.086863  0.086863      6.000000
  0.108579  0.108579  0.086863      6.000000
  0.130294  0.108579  0.086863     12.000000
 -0.108579  0.108579  0.086863     12.000000
 -0.086863  0.108579  0.086863     12.000000
  0.130294  0.130294  0.086863      6.000000
 -0.108579  0.130294  0.086863     12.000000
 -0.086863  0.130294  0.086863      6.000000
 -0.108579 -0.108579  0.086863      6.000000
  0.108579  0.108579  0.108579      2.000000
  0.130294  0.108579  0.108579      6.000000
 -0.108579  0.108579  0.108579      6.000000
  0.130294  0.130294  0.108579      6.000000
 -0.108579  0.130294  0.108579      6.000000
  0.130294  0.130294  0.130294      1.000000
 
 
 Subroutine IBZKPT_HF returns following result:
 ==============================================
 
 Found   1728 k-points in 1st BZ
 the following   1728 k-points will be used (e.g. in the exchange kernel)
 Following reciprocal coordinates:   # in IRBZ
  0.000000  0.000000  0.000000    0.00057870   1 t-inv F
  0.083333  0.000000  0.000000    0.00057870   2 t-inv F
  0.166667  0.000000  0.000000    0.00057870   3 t-inv F
  0.250000  0.000000  0.000000    0.00057870   4 t-inv F
  0.333333  0.000000  0.000000    0.00057870   5 t-inv F
  0.416667  0.000000  0.000000    0.00057870   6 t-inv F
  0.500000  0.000000  0.000000    0.00057870   7 t-inv F
  0.083333  0.083333  0.000000    0.00057870   8 t-inv F
  0.166667  0.083333  0.000000    0.00057870   9 t-inv F
  0.250000  0.083333  0.000000    0.00057870  10 t-inv F
  0.333333  0.083333  0.000000    0.00057870  11 t-inv F
  0.416667  0.083333  0.000000    0.00057870  12 t-inv F
  0.500000  0.083333  0.000000    0.00057870  13 t-inv F
 -0.416667  0.083333  0.000000    0.00057870  14 t-inv F
 -0.333333  0.083333  0.000000    0.00057870  15 t-inv F
 -0.250000  0.083333  0.000000    0.00057870  16 t-inv F
 -0.166667  0.083333  0.000000    0.00057870  17 t-inv F
 -0.083333  0.083333  0.000000    0.00057870  18 t-inv F
  0.166667  0.166667  0.000000    0.00057870  19 t-inv F
  0.250000  0.166667  0.000000    0.00057870  20 t-inv F
  0.333333  0.166667  0.000000    0.00057870  21 t-inv F
  0.416667  0.166667  0.000000    0.00057870  22 t-inv F
  0.500000  0.166667  0.000000    0.00057870  23 t-inv F
 -0.416667  0.166667  0.000000    0.00057870  24 t-inv F
 -0.333333  0.166667  0.000000    0.00057870  25 t-inv F
 -0.250000  0.166667  0.000000    0.00057870  26 t-inv F
 -0.166667  0.166667  0.000000    0.00057870  27 t-inv F
  0.250000  0.250000  0.000000    0.00057870  28 t-inv F
  0.333333  0.250000  0.000000    0.00057870  29 t-inv F
  0.416667  0.250000  0.000000    0.00057870  30 t-inv F
  0.500000  0.250000  0.000000    0.00057870  31 t-inv F
 -0.416667  0.250000  0.000000    0.00057870  32 t-inv F
 -0.333333  0.250000  0.000000    0.00057870  33 t-inv F
 -0.250000  0.250000  0.000000    0.00057870  34 t-inv F
  0.333333  0.333333  0.000000    0.00057870  35 t-inv F
  0.416667  0.333333  0.000000    0.00057870  36 t-inv F
  0.500000  0.333333  0.000000    0.00057870  37 t-inv F
 -0.416667  0.333333  0.000000    0.00057870  38 t-inv F
 -0.333333  0.333333  0.000000    0.00057870  39 t-inv F
  0.416667  0.416667  0.000000    0.00057870  40 t-inv F
  0.500000  0.416667  0.000000    0.00057870  41 t-inv F
 -0.416667  0.416667  0.000000    0.00057870  42 t-inv F
  0.500000  0.500000  0.000000    0.00057870  43 t-inv F
  0.083333  0.083333  0.083333    0.00057870  44 t-inv F
  0.166667  0.083333  0.083333    0.00057870  45 t-inv F
  0.250000  0.083333  0.083333    0.00057870  46 t-inv F
  0.333333  0.083333  0.083333    0.00057870  47 t-inv F
  0.416667  0.083333  0.083333    0.00057870  48 t-inv F
  0.500000  0.083333  0.083333    0.00057870  49 t-inv F
 -0.416667  0.083333  0.083333    0.00057870  50 t-inv F
 -0.333333  0.083333  0.083333    0.00057870  51 t-inv F
 -0.250000  0.083333  0.083333    0.00057870  52 t-inv F
 -0.166667  0.083333  0.083333    0.00057870  53 t-inv F
 -0.083333  0.083333  0.083333    0.00057870  54 t-inv F
  0.166667  0.166667  0.083333    0.00057870  55 t-inv F
  0.250000  0.166667  0.083333    0.00057870  56 t-inv F
  0.333333  0.166667  0.083333    0.00057870  57 t-inv F
  0.416667  0.166667  0.083333    0.00057870  58 t-inv F
  0.500000  0.166667  0.083333    0.00057870  59 t-inv F
 -0.416667  0.166667  0.083333    0.00057870  60 t-inv F
 -0.333333  0.166667  0.083333    0.00057870  61 t-inv F
 -0.250000  0.166667  0.083333    0.00057870  62 t-inv F
 -0.166667  0.166667  0.083333    0.00057870  63 t-inv F
 -0.083333  0.166667  0.083333    0.00057870  64 t-inv F
  0.250000  0.250000  0.083333    0.00057870  65 t-inv F
  0.333333  0.250000  0.083333    0.00057870  66 t-inv F
  0.416667  0.250000  0.083333    0.00057870  67 t-inv F
  0.500000  0.250000  0.083333    0.00057870  68 t-inv F
 -0.416667  0.250000  0.083333    0.00057870  69 t-inv F
 -0.333333  0.250000  0.083333    0.00057870  70 t-inv F
 -0.250000  0.250000  0.083333    0.00057870  71 t-inv F
 -0.166667  0.250000  0.083333    0.00057870  72 t-inv F
 -0.083333  0.250000  0.083333    0.00057870  73 t-inv F
  0.333333  0.333333  0.083333    0.00057870  74 t-inv F
  0.416667  0.333333  0.083333    0.00057870  75 t-inv F
  0.500000  0.333333  0.083333    0.00057870  76 t-inv F
 -0.416667  0.333333  0.083333    0.00057870  77 t-inv F
 -0.333333  0.333333  0.083333    0.00057870  78 t-inv F
 -0.250000  0.333333  0.083333    0.00057870  79 t-inv F
 -0.166667  0.333333  0.083333    0.00057870  80 t-inv F
 -0.083333  0.333333  0.083333    0.00057870  81 t-inv F
  0.416667  0.416667  0.083333    0.00057870  82 t-inv F
  0.500000  0.416667  0.083333    0.00057870  83 t-inv F
 -0.416667  0.416667  0.083333    0.00057870  84 t-inv F
 -0.333333  0.416667  0.083333    0.00057870  85 t-inv F
 -0.250000  0.416667  0.083333    0.00057870  86 t-inv F
 -0.166667  0.416667  0.083333    0.00057870  87 t-inv F
 -0.083333  0.416667  0.083333    0.00057870  88 t-inv F
  0.500000  0.500000  0.083333    0.00057870  89 t-inv F
 -0.416667  0.500000  0.083333    0.00057870  90 t-inv F
 -0.333333  0.500000  0.083333    0.00057870  91 t-inv F
 -0.250000  0.500000  0.083333    0.00057870  92 t-inv F
 -0.166667  0.500000  0.083333    0.00057870  93 t-inv F
 -0.083333  0.500000  0.083333    0.00057870  94 t-inv F
 -0.416667 -0.416667  0.083333    0.00057870  95 t-inv F
 -0.333333 -0.416667  0.083333    0.00057870  96 t-inv F
 -0.250000 -0.416667  0.083333    0.00057870  97 t-inv F
 -0.166667 -0.416667  0.083333    0.00057870  98 t-inv F
 -0.333333 -0.333333  0.083333    0.00057870  99 t-inv F
 -0.250000 -0.333333  0.083333    0.00057870 100 t-inv F
 -0.166667 -0.333333  0.083333    0.00057870 101 t-inv F
 -0.250000 -0.250000  0.083333    0.00057870 102 t-inv F
 -0.166667 -0.250000  0.083333    0.00057870 103 t-inv F
 -0.166667 -0.166667  0.083333    0.00057870 104 t-inv F
  0.166667  0.166667  0.166667    0.00057870 105 t-inv F
  0.250000  0.166667  0.166667    0.00057870 106 t-inv F
  0.333333  0.166667  0.166667    0.00057870 107 t-inv F
  0.416667  0.166667  0.166667    0.00057870 108 t-inv F
  0.500000  0.166667  0.166667    0.00057870 109 t-inv F
 -0.416667  0.166667  0.166667    0.00057870 110 t-inv F
 -0.333333  0.166667  0.166667    0.00057870 111 t-inv F
 -0.250000  0.166667  0.166667    0.00057870 112 t-inv F
 -0.166667  0.166667  0.166667    0.00057870 113 t-inv F
  0.250000  0.250000  0.166667    0.00057870 114 t-inv F
  0.333333  0.250000  0.166667    0.00057870 115 t-inv F
  0.416667  0.250000  0.166667    0.00057870 116 t-inv F
  0.500000  0.250000  0.166667    0.00057870 117 t-inv F
 -0.416667  0.250000  0.166667    0.00057870 118 t-inv F
 -0.333333  0.250000  0.166667    0.00057870 119 t-inv F
 -0.250000  0.250000  0.166667    0.00057870 120 t-inv F
 -0.166667  0.250000  0.166667    0.00057870 121 t-inv F
  0.333333  0.333333  0.166667    0.00057870 122 t-inv F
  0.416667  0.333333  0.166667    0.00057870 123 t-inv F
  0.500000  0.333333  0.166667    0.00057870 124 t-inv F
 -0.416667  0.333333  0.166667    0.00057870 125 t-inv F
 -0.333333  0.333333  0.166667    0.00057870 126 t-inv F
 -0.250000  0.333333  0.166667    0.00057870 127 t-inv F
 -0.166667  0.333333  0.166667    0.00057870 128 t-inv F
  0.416667  0.416667  0.166667    0.00057870 129 t-inv F
  0.500000  0.416667  0.166667    0.00057870 130 t-inv F
 -0.416667  0.416667  0.166667    0.00057870 131 t-inv F
 -0.333333  0.416667  0.166667    0.00057870 132 t-inv F
 -0.250000  0.416667  0.166667    0.00057870 133 t-inv F
 -0.166667  0.416667  0.166667    0.00057870 134 t-inv F
  0.500000  0.500000  0.166667    0.00057870 135 t-inv F
 -0.416667  0.500000  0.166667    0.00057870 136 t-inv F
 -0.333333  0.500000  0.166667    0.00057870 137 t-inv F
 -0.250000  0.500000  0.166667    0.00057870 138 t-inv F
 -0.166667  0.500000  0.166667    0.00057870 139 t-inv F
 -0.416667 -0.416667  0.166667    0.00057870 140 t-inv F
 -0.333333 -0.416667  0.166667    0.00057870 141 t-inv F
 -0.250000 -0.416667  0.166667    0.00057870 142 t-inv F
 -0.333333 -0.333333  0.166667    0.00057870 143 t-inv F
 -0.250000 -0.333333  0.166667    0.00057870 144 t-inv F
 -0.250000 -0.250000  0.166667    0.00057870 145 t-inv F
  0.250000  0.250000  0.250000    0.00057870 146 t-inv F
  0.333333  0.250000  0.250000    0.00057870 147 t-inv F
  0.416667  0.250000  0.250000    0.00057870 148 t-inv F
  0.500000  0.250000  0.250000    0.00057870 149 t-inv F
 -0.416667  0.250000  0.250000    0.00057870 150 t-inv F
 -0.333333  0.250000  0.250000    0.00057870 151 t-inv F
 -0.250000  0.250000  0.250000    0.00057870 152 t-inv F
  0.333333  0.333333  0.250000    0.00057870 153 t-inv F
  0.416667  0.333333  0.250000    0.00057870 154 t-inv F
  0.500000  0.333333  0.250000    0.00057870 155 t-inv F
 -0.416667  0.333333  0.250000    0.00057870 156 t-inv F
 -0.333333  0.333333  0.250000    0.00057870 157 t-inv F
 -0.250000  0.333333  0.250000    0.00057870 158 t-inv F
  0.416667  0.416667  0.250000    0.00057870 159 t-inv F
  0.500000  0.416667  0.250000    0.00057870 160 t-inv F
 -0.416667  0.416667  0.250000    0.00057870 161 t-inv F
 -0.333333  0.416667  0.250000    0.00057870 162 t-inv F
 -0.250000  0.416667  0.250000    0.00057870 163 t-inv F
  0.500000  0.500000  0.250000    0.00057870 164 t-inv F
 -0.416667  0.500000  0.250000    0.00057870 165 t-inv F
 -0.333333  0.500000  0.250000    0.00057870 166 t-inv F
 -0.250000  0.500000  0.250000    0.00057870 167 t-inv F
 -0.416667 -0.416667  0.250000    0.00057870 168 t-inv F
 -0.333333 -0.416667  0.250000    0.00057870 169 t-inv F
 -0.333333 -0.333333  0.250000    0.00057870 170 t-inv F
  0.333333  0.333333  0.333333    0.00057870 171 t-inv F
  0.416667  0.333333  0.333333    0.00057870 172 t-inv F
  0.500000  0.333333  0.333333    0.00057870 173 t-inv F
 -0.416667  0.333333  0.333333    0.00057870 174 t-inv F
 -0.333333  0.333333  0.333333    0.00057870 175 t-inv F
  0.416667  0.416667  0.333333    0.00057870 176 t-inv F
  0.500000  0.416667  0.333333    0.00057870 177 t-inv F
 -0.416667  0.416667  0.333333    0.00057870 178 t-inv F
 -0.333333  0.416667  0.333333    0.00057870 179 t-inv F
  0.500000  0.500000  0.333333    0.00057870 180 t-inv F
 -0.416667  0.500000  0.333333    0.00057870 181 t-inv F
 -0.333333  0.500000  0.333333    0.00057870 182 t-inv F
 -0.416667 -0.416667  0.333333    0.00057870 183 t-inv F
  0.416667  0.416667  0.416667    0.00057870 184 t-inv F
  0.500000  0.416667  0.416667    0.00057870 185 t-inv F
 -0.416667  0.416667  0.416667    0.00057870 186 t-inv F
  0.500000  0.500000  0.416667    0.00057870 187 t-inv F
 -0.416667  0.500000  0.416667    0.00057870 188 t-inv F
  0.500000  0.500000  0.500000    0.00057870 189 t-inv F
  0.000000  0.083333  0.000000    0.00057870   2 t-inv F
  0.000000  0.000000  0.083333    0.00057870   2 t-inv F
  0.000000  0.166667  0.000000    0.00057870   3 t-inv F
  0.000000  0.000000  0.166667    0.00057870   3 t-inv F
  0.000000  0.250000  0.000000    0.00057870   4 t-inv F
  0.000000  0.000000  0.250000    0.00057870   4 t-inv F
  0.000000  0.333333  0.000000    0.00057870   5 t-inv F
  0.000000  0.000000  0.333333    0.00057870   5 t-inv F
  0.000000  0.416667  0.000000    0.00057870   6 t-inv F
  0.000000  0.000000  0.416667    0.00057870   6 t-inv F
  0.000000  0.500000  0.000000    0.00057870   7 t-inv F
  0.000000  0.000000  0.500000    0.00057870   7 t-inv F
  0.000000  0.083333  0.083333    0.00057870   8 t-inv F
  0.083333  0.000000  0.083333    0.00057870   8 t-inv F
  0.000000  0.166667  0.083333    0.00057870   9 t-inv F
  0.083333  0.000000  0.166667    0.00057870   9 t-inv F
  0.166667  0.000000  0.083333    0.00057870   9 t-inv F
  0.083333  0.166667  0.000000    0.00057870   9 t-inv F
  0.000000  0.083333  0.166667    0.00057870   9 t-inv F
  0.000000  0.250000  0.083333    0.00057870  10 t-inv F
  0.083333  0.000000  0.250000    0.00057870  10 t-inv F
  0.250000  0.000000  0.083333    0.00057870  10 t-inv F
  0.083333  0.250000  0.000000    0.00057870  10 t-inv F
  0.000000  0.083333  0.250000    0.00057870  10 t-inv F
  0.000000  0.333333  0.083333    0.00057870  11 t-inv F
  0.083333  0.000000  0.333333    0.00057870  11 t-inv F
  0.333333  0.000000  0.083333    0.00057870  11 t-inv F
  0.083333  0.333333  0.000000    0.00057870  11 t-inv F
  0.000000  0.083333  0.333333    0.00057870  11 t-inv F
  0.000000  0.416667  0.083333    0.00057870  12 t-inv F
  0.083333  0.000000  0.416667    0.00057870  12 t-inv F
  0.416667  0.000000  0.083333    0.00057870  12 t-inv F
  0.083333  0.416667  0.000000    0.00057870  12 t-inv F
  0.000000  0.083333  0.416667    0.00057870  12 t-inv F
  0.000000  0.500000  0.083333    0.00057870  13 t-inv F
  0.083333  0.000000  0.500000    0.00057870  13 t-inv F
  0.500000  0.000000  0.083333    0.00057870  13 t-inv F
  0.083333  0.500000  0.000000    0.00057870  13 t-inv F
  0.000000  0.083333  0.500000    0.00057870  13 t-inv F
  0.000000 -0.416667  0.083333    0.00057870  14 t-inv F
  0.083333  0.000000 -0.416667    0.00057870  14 t-inv F
 -0.416667  0.000000  0.083333    0.00057870  14 t-inv F
  0.083333 -0.416667  0.000000    0.00057870  14 t-inv F
  0.000000  0.083333 -0.416667    0.00057870  14 t-inv F
  0.000000 -0.333333  0.083333    0.00057870  15 t-inv F
  0.083333  0.000000 -0.333333    0.00057870  15 t-inv F
 -0.333333  0.000000  0.083333    0.00057870  15 t-inv F
  0.083333 -0.333333  0.000000    0.00057870  15 t-inv F
  0.000000  0.083333 -0.333333    0.00057870  15 t-inv F
  0.000000 -0.250000  0.083333    0.00057870  16 t-inv F
  0.083333  0.000000 -0.250000    0.00057870  16 t-inv F
 -0.250000  0.000000  0.083333    0.00057870  16 t-inv F
  0.083333 -0.250000  0.000000    0.00057870  16 t-inv F
  0.000000  0.083333 -0.250000    0.00057870  16 t-inv F
  0.000000 -0.166667  0.083333    0.00057870  17 t-inv F
  0.083333  0.000000 -0.166667    0.00057870  17 t-inv F
 -0.166667  0.000000  0.083333    0.00057870  17 t-inv F
  0.083333 -0.166667  0.000000    0.00057870  17 t-inv F
  0.000000  0.083333 -0.166667    0.00057870  17 t-inv F
  0.000000 -0.083333  0.083333    0.00057870  18 t-inv F
  0.083333  0.000000 -0.083333    0.00057870  18 t-inv F
 -0.083333  0.000000  0.083333    0.00057870  18 t-inv F
  0.083333 -0.083333  0.000000    0.00057870  18 t-inv F
  0.000000  0.083333 -0.083333    0.00057870  18 t-inv F
  0.000000  0.166667  0.166667    0.00057870  19 t-inv F
  0.166667  0.000000  0.166667    0.00057870  19 t-inv F
  0.000000  0.250000  0.166667    0.00057870  20 t-inv F
  0.166667  0.000000  0.250000    0.00057870  20 t-inv F
  0.250000  0.000000  0.166667    0.00057870  20 t-inv F
  0.166667  0.250000  0.000000    0.00057870  20 t-inv F
  0.000000  0.166667  0.250000    0.00057870  20 t-inv F
  0.000000  0.333333  0.166667    0.00057870  21 t-inv F
  0.166667  0.000000  0.333333    0.00057870  21 t-inv F
  0.333333  0.000000  0.166667    0.00057870  21 t-inv F
  0.166667  0.333333  0.000000    0.00057870  21 t-inv F
  0.000000  0.166667  0.333333    0.00057870  21 t-inv F
  0.000000  0.416667  0.166667    0.00057870  22 t-inv F
  0.166667  0.000000  0.416667    0.00057870  22 t-inv F
  0.416667  0.000000  0.166667    0.00057870  22 t-inv F
  0.166667  0.416667  0.000000    0.00057870  22 t-inv F
  0.000000  0.166667  0.416667    0.00057870  22 t-inv F
  0.000000  0.500000  0.166667    0.00057870  23 t-inv F
  0.166667  0.000000  0.500000    0.00057870  23 t-inv F
  0.500000  0.000000  0.166667    0.00057870  23 t-inv F
  0.166667  0.500000  0.000000    0.00057870  23 t-inv F
  0.000000  0.166667  0.500000    0.00057870  23 t-inv F
  0.000000 -0.416667  0.166667    0.00057870  24 t-inv F
  0.166667  0.000000 -0.416667    0.00057870  24 t-inv F
 -0.416667  0.000000  0.166667    0.00057870  24 t-inv F
  0.166667 -0.416667  0.000000    0.00057870  24 t-inv F
  0.000000  0.166667 -0.416667    0.00057870  24 t-inv F
  0.000000 -0.333333  0.166667    0.00057870  25 t-inv F
  0.166667  0.000000 -0.333333    0.00057870  25 t-inv F
 -0.333333  0.000000  0.166667    0.00057870  25 t-inv F
  0.166667 -0.333333  0.000000    0.00057870  25 t-inv F
  0.000000  0.166667 -0.333333    0.00057870  25 t-inv F
  0.000000 -0.250000  0.166667    0.00057870  26 t-inv F
  0.166667  0.000000 -0.250000    0.00057870  26 t-inv F
 -0.250000  0.000000  0.166667    0.00057870  26 t-inv F
  0.166667 -0.250000  0.000000    0.00057870  26 t-inv F
  0.000000  0.166667 -0.250000    0.00057870  26 t-inv F
  0.000000 -0.166667  0.166667    0.00057870  27 t-inv F
  0.166667  0.000000 -0.166667    0.00057870  27 t-inv F
 -0.166667  0.000000  0.166667    0.00057870  27 t-inv F
  0.166667 -0.166667  0.000000    0.00057870  27 t-inv F
  0.000000  0.166667 -0.166667    0.00057870  27 t-inv F
  0.000000  0.250000  0.250000    0.00057870  28 t-inv F
  0.250000  0.000000  0.250000    0.00057870  28 t-inv F
  0.000000  0.333333  0.250000    0.00057870  29 t-inv F
  0.250000  0.000000  0.333333    0.00057870  29 t-inv F
  0.333333  0.000000  0.250000    0.00057870  29 t-inv F
  0.250000  0.333333  0.000000    0.00057870  29 t-inv F
  0.000000  0.250000  0.333333    0.00057870  29 t-inv F
  0.000000  0.416667  0.250000    0.00057870  30 t-inv F
  0.250000  0.000000  0.416667    0.00057870  30 t-inv F
  0.416667  0.000000  0.250000    0.00057870  30 t-inv F
  0.250000  0.416667  0.000000    0.00057870  30 t-inv F
  0.000000  0.250000  0.416667    0.00057870  30 t-inv F
  0.000000  0.500000  0.250000    0.00057870  31 t-inv F
  0.250000  0.000000  0.500000    0.00057870  31 t-inv F
  0.500000  0.000000  0.250000    0.00057870  31 t-inv F
  0.250000  0.500000  0.000000    0.00057870  31 t-inv F
  0.000000  0.250000  0.500000    0.00057870  31 t-inv F
  0.000000 -0.416667  0.250000    0.00057870  32 t-inv F
  0.250000  0.000000 -0.416667    0.00057870  32 t-inv F
 -0.416667  0.000000  0.250000    0.00057870  32 t-inv F
  0.250000 -0.416667  0.000000    0.00057870  32 t-inv F
  0.000000  0.250000 -0.416667    0.00057870  32 t-inv F
  0.000000 -0.333333  0.250000    0.00057870  33 t-inv F
  0.250000  0.000000 -0.333333    0.00057870  33 t-inv F
 -0.333333  0.000000  0.250000    0.00057870  33 t-inv F
  0.250000 -0.333333  0.000000    0.00057870  33 t-inv F
  0.000000  0.250000 -0.333333    0.00057870  33 t-inv F
  0.000000 -0.250000  0.250000    0.00057870  34 t-inv F
  0.250000  0.000000 -0.250000    0.00057870  34 t-inv F
 -0.250000  0.000000  0.250000    0.00057870  34 t-inv F
  0.250000 -0.250000  0.000000    0.00057870  34 t-inv F
  0.000000  0.250000 -0.250000    0.00057870  34 t-inv F
  0.000000  0.333333  0.333333    0.00057870  35 t-inv F
  0.333333  0.000000  0.333333    0.00057870  35 t-inv F
  0.000000  0.416667  0.333333    0.00057870  36 t-inv F
  0.333333  0.000000  0.416667    0.00057870  36 t-inv F
  0.416667  0.000000  0.333333    0.00057870  36 t-inv F
  0.333333  0.416667  0.000000    0.00057870  36 t-inv F
  0.000000  0.333333  0.416667    0.00057870  36 t-inv F
  0.000000  0.500000  0.333333    0.00057870  37 t-inv F
  0.333333  0.000000  0.500000    0.00057870  37 t-inv F
  0.500000  0.000000  0.333333    0.00057870  37 t-inv F
  0.333333  0.500000  0.000000    0.00057870  37 t-inv F
  0.000000  0.333333  0.500000    0.00057870  37 t-inv F
  0.000000 -0.416667  0.333333    0.00057870  38 t-inv F
  0.333333  0.000000 -0.416667    0.00057870  38 t-inv F
 -0.416667  0.000000  0.333333    0.00057870  38 t-inv F
  0.333333 -0.416667  0.000000    0.00057870  38 t-inv F
  0.000000  0.333333 -0.416667    0.00057870  38 t-inv F
  0.000000 -0.333333  0.333333    0.00057870  39 t-inv F
  0.333333  0.000000 -0.333333    0.00057870  39 t-inv F
 -0.333333  0.000000  0.333333    0.00057870  39 t-inv F
  0.333333 -0.333333  0.000000    0.00057870  39 t-inv F
  0.000000  0.333333 -0.333333    0.00057870  39 t-inv F
  0.000000  0.416667  0.416667    0.00057870  40 t-inv F
  0.416667  0.000000  0.416667    0.00057870  40 t-inv F
  0.000000  0.500000  0.416667    0.00057870  41 t-inv F
  0.416667  0.000000  0.500000    0.00057870  41 t-inv F
  0.500000  0.000000  0.416667    0.00057870  41 t-inv F
  0.416667  0.500000  0.000000    0.00057870  41 t-inv F
  0.000000  0.416667  0.500000    0.00057870  41 t-inv F
  0.000000 -0.416667  0.416667    0.00057870  42 t-inv F
  0.416667  0.000000 -0.416667    0.00057870  42 t-inv F
 -0.416667  0.000000  0.416667    0.00057870  42 t-inv F
  0.416667 -0.416667  0.000000    0.00057870  42 t-inv F
  0.000000  0.416667 -0.416667    0.00057870  42 t-inv F
  0.000000  0.500000  0.500000    0.00057870  43 t-inv F
  0.500000  0.000000  0.500000    0.00057870  43 t-inv F
  0.083333  0.166667  0.083333    0.00057870  45 t-inv F
  0.083333  0.083333  0.166667    0.00057870  45 t-inv F
  0.083333  0.250000  0.083333    0.00057870  46 t-inv F
  0.083333  0.083333  0.250000    0.00057870  46 t-inv F
  0.083333  0.333333  0.083333    0.00057870  47 t-inv F
  0.083333  0.083333  0.333333    0.00057870  47 t-inv F
  0.083333  0.416667  0.083333    0.00057870  48 t-inv F
  0.083333  0.083333  0.416667    0.00057870  48 t-inv F
  0.083333  0.500000  0.083333    0.00057870  49 t-inv F
  0.083333  0.083333  0.500000    0.00057870  49 t-inv F
  0.083333 -0.416667  0.083333    0.00057870  50 t-inv F
  0.083333  0.083333 -0.416667    0.00057870  50 t-inv F
  0.083333 -0.333333  0.083333    0.00057870  51 t-inv F
  0.083333  0.083333 -0.333333    0.00057870  51 t-inv F
  0.083333 -0.250000  0.083333    0.00057870  52 t-inv F
  0.083333  0.083333 -0.250000    0.00057870  52 t-inv F
  0.083333 -0.166667  0.083333    0.00057870  53 t-inv F
  0.083333  0.083333 -0.166667    0.00057870  53 t-inv F
  0.083333 -0.083333  0.083333    0.00057870  54 t-inv F
  0.083333  0.083333 -0.083333    0.00057870  54 t-inv F
  0.083333  0.166667  0.166667    0.00057870  55 t-inv F
  0.166667  0.083333  0.166667    0.00057870  55 t-inv F
  0.083333  0.250000  0.166667    0.00057870  56 t-inv F
  0.166667  0.083333  0.250000    0.00057870  56 t-inv F
  0.250000  0.083333  0.166667    0.00057870  56 t-inv F
  0.166667  0.250000  0.083333    0.00057870  56 t-inv F
  0.083333  0.166667  0.250000    0.00057870  56 t-inv F
  0.083333  0.333333  0.166667    0.00057870  57 t-inv F
  0.166667  0.083333  0.333333    0.00057870  57 t-inv F
  0.333333  0.083333  0.166667    0.00057870  57 t-inv F
  0.166667  0.333333  0.083333    0.00057870  57 t-inv F
  0.083333  0.166667  0.333333    0.00057870  57 t-inv F
  0.083333  0.416667  0.166667    0.00057870  58 t-inv F
  0.166667  0.083333  0.416667    0.00057870  58 t-inv F
  0.416667  0.083333  0.166667    0.00057870  58 t-inv F
  0.166667  0.416667  0.083333    0.00057870  58 t-inv F
  0.083333  0.166667  0.416667    0.00057870  58 t-inv F
  0.083333  0.500000  0.166667    0.00057870  59 t-inv F
  0.166667  0.083333  0.500000    0.00057870  59 t-inv F
  0.500000  0.083333  0.166667    0.00057870  59 t-inv F
  0.166667  0.500000  0.083333    0.00057870  59 t-inv F
  0.083333  0.166667  0.500000    0.00057870  59 t-inv F
  0.083333 -0.416667  0.166667    0.00057870  60 t-inv F
  0.166667  0.083333 -0.416667    0.00057870  60 t-inv F
 -0.416667  0.083333  0.166667    0.00057870  60 t-inv F
  0.166667 -0.416667  0.083333    0.00057870  60 t-inv F
  0.083333  0.166667 -0.416667    0.00057870  60 t-inv F
  0.083333 -0.333333  0.166667    0.00057870  61 t-inv F
  0.166667  0.083333 -0.333333    0.00057870  61 t-inv F
 -0.333333  0.083333  0.166667    0.00057870  61 t-inv F
  0.166667 -0.333333  0.083333    0.00057870  61 t-inv F
  0.083333  0.166667 -0.333333    0.00057870  61 t-inv F
  0.083333 -0.250000  0.166667    0.00057870  62 t-inv F
  0.166667  0.083333 -0.250000    0.00057870  62 t-inv F
 -0.250000  0.083333  0.166667    0.00057870  62 t-inv F
  0.166667 -0.250000  0.083333    0.00057870  62 t-inv F
  0.083333  0.166667 -0.250000    0.00057870  62 t-inv F
  0.083333 -0.166667  0.166667    0.00057870  63 t-inv F
  0.166667  0.083333 -0.166667    0.00057870  63 t-inv F
 -0.166667  0.083333  0.166667    0.00057870  63 t-inv F
  0.166667 -0.166667  0.083333    0.00057870  63 t-inv F
  0.083333  0.166667 -0.166667    0.00057870  63 t-inv F
  0.083333 -0.083333  0.166667    0.00057870  64 t-inv F
  0.166667  0.083333 -0.083333    0.00057870  64 t-inv F
 -0.083333  0.083333  0.166667    0.00057870  64 t-inv F
  0.166667 -0.083333  0.083333    0.00057870  64 t-inv F
  0.083333  0.166667 -0.083333    0.00057870  64 t-inv F
  0.083333  0.250000  0.250000    0.00057870  65 t-inv F
  0.250000  0.083333  0.250000    0.00057870  65 t-inv F
  0.083333  0.333333  0.250000    0.00057870  66 t-inv F
  0.250000  0.083333  0.333333    0.00057870  66 t-inv F
  0.333333  0.083333  0.250000    0.00057870  66 t-inv F
  0.250000  0.333333  0.083333    0.00057870  66 t-inv F
  0.083333  0.250000  0.333333    0.00057870  66 t-inv F
  0.083333  0.416667  0.250000    0.00057870  67 t-inv F
  0.250000  0.083333  0.416667    0.00057870  67 t-inv F
  0.416667  0.083333  0.250000    0.00057870  67 t-inv F
  0.250000  0.416667  0.083333    0.00057870  67 t-inv F
  0.083333  0.250000  0.416667    0.00057870  67 t-inv F
  0.083333  0.500000  0.250000    0.00057870  68 t-inv F
  0.250000  0.083333  0.500000    0.00057870  68 t-inv F
  0.500000  0.083333  0.250000    0.00057870  68 t-inv F
  0.250000  0.500000  0.083333    0.00057870  68 t-inv F
  0.083333  0.250000  0.500000    0.00057870  68 t-inv F
  0.083333 -0.416667  0.250000    0.00057870  69 t-inv F
  0.250000  0.083333 -0.416667    0.00057870  69 t-inv F
 -0.416667  0.083333  0.250000    0.00057870  69 t-inv F
  0.250000 -0.416667  0.083333    0.00057870  69 t-inv F
  0.083333  0.250000 -0.416667    0.00057870  69 t-inv F
  0.083333 -0.333333  0.250000    0.00057870  70 t-inv F
  0.250000  0.083333 -0.333333    0.00057870  70 t-inv F
 -0.333333  0.083333  0.250000    0.00057870  70 t-inv F
  0.250000 -0.333333  0.083333    0.00057870  70 t-inv F
  0.083333  0.250000 -0.333333    0.00057870  70 t-inv F
  0.083333 -0.250000  0.250000    0.00057870  71 t-inv F
  0.250000  0.083333 -0.250000    0.00057870  71 t-inv F
 -0.250000  0.083333  0.250000    0.00057870  71 t-inv F
  0.250000 -0.250000  0.083333    0.00057870  71 t-inv F
  0.083333  0.250000 -0.250000    0.00057870  71 t-inv F
  0.083333 -0.166667  0.250000    0.00057870  72 t-inv F
  0.250000  0.083333 -0.166667    0.00057870  72 t-inv F
 -0.166667  0.083333  0.250000    0.00057870  72 t-inv F
  0.250000 -0.166667  0.083333    0.00057870  72 t-inv F
  0.083333  0.250000 -0.166667    0.00057870  72 t-inv F
  0.083333 -0.083333  0.250000    0.00057870  73 t-inv F
  0.250000  0.083333 -0.083333    0.00057870  73 t-inv F
 -0.083333  0.083333  0.250000    0.00057870  73 t-inv F
  0.250000 -0.083333  0.083333    0.00057870  73 t-inv F
  0.083333  0.250000 -0.083333    0.00057870  73 t-inv F
  0.083333  0.333333  0.333333    0.00057870  74 t-inv F
  0.333333  0.083333  0.333333    0.00057870  74 t-inv F
  0.083333  0.416667  0.333333    0.00057870  75 t-inv F
  0.333333  0.083333  0.416667    0.00057870  75 t-inv F
  0.416667  0.083333  0.333333    0.00057870  75 t-inv F
  0.333333  0.416667  0.083333    0.00057870  75 t-inv F
  0.083333  0.333333  0.416667    0.00057870  75 t-inv F
  0.083333  0.500000  0.333333    0.00057870  76 t-inv F
  0.333333  0.083333  0.500000    0.00057870  76 t-inv F
  0.500000  0.083333  0.333333    0.00057870  76 t-inv F
  0.333333  0.500000  0.083333    0.00057870  76 t-inv F
  0.083333  0.333333  0.500000    0.00057870  76 t-inv F
  0.083333 -0.416667  0.333333    0.00057870  77 t-inv F
  0.333333  0.083333 -0.416667    0.00057870  77 t-inv F
 -0.416667  0.083333  0.333333    0.00057870  77 t-inv F
  0.333333 -0.416667  0.083333    0.00057870  77 t-inv F
  0.083333  0.333333 -0.416667    0.00057870  77 t-inv F
  0.083333 -0.333333  0.333333    0.00057870  78 t-inv F
  0.333333  0.083333 -0.333333    0.00057870  78 t-inv F
 -0.333333  0.083333  0.333333    0.00057870  78 t-inv F
  0.333333 -0.333333  0.083333    0.00057870  78 t-inv F
  0.083333  0.333333 -0.333333    0.00057870  78 t-inv F
  0.083333 -0.250000  0.333333    0.00057870  79 t-inv F
  0.333333  0.083333 -0.250000    0.00057870  79 t-inv F
 -0.250000  0.083333  0.333333    0.00057870  79 t-inv F
  0.333333 -0.250000  0.083333    0.00057870  79 t-inv F
  0.083333  0.333333 -0.250000    0.00057870  79 t-inv F
  0.083333 -0.166667  0.333333    0.00057870  80 t-inv F
  0.333333  0.083333 -0.166667    0.00057870  80 t-inv F
 -0.166667  0.083333  0.333333    0.00057870  80 t-inv F
  0.333333 -0.166667  0.083333    0.00057870  80 t-inv F
  0.083333  0.333333 -0.166667    0.00057870  80 t-inv F
  0.083333 -0.083333  0.333333    0.00057870  81 t-inv F
  0.333333  0.083333 -0.083333    0.00057870  81 t-inv F
 -0.083333  0.083333  0.333333    0.00057870  81 t-inv F
  0.333333 -0.083333  0.083333    0.00057870  81 t-inv F
  0.083333  0.333333 -0.083333    0.00057870  81 t-inv F
  0.083333  0.416667  0.416667    0.00057870  82 t-inv F
  0.416667  0.083333  0.416667    0.00057870  82 t-inv F
  0.083333  0.500000  0.416667    0.00057870  83 t-inv F
  0.416667  0.083333  0.500000    0.00057870  83 t-inv F
  0.500000  0.083333  0.416667    0.00057870  83 t-inv F
  0.416667  0.500000  0.083333    0.00057870  83 t-inv F
  0.083333  0.416667  0.500000    0.00057870  83 t-inv F
  0.083333 -0.416667  0.416667    0.00057870  84 t-inv F
  0.416667  0.083333 -0.416667    0.00057870  84 t-inv F
 -0.416667  0.083333  0.416667    0.00057870  84 t-inv F
  0.416667 -0.416667  0.083333    0.00057870  84 t-inv F
  0.083333  0.416667 -0.416667    0.00057870  84 t-inv F
  0.083333 -0.333333  0.416667    0.00057870  85 t-inv F
  0.416667  0.083333 -0.333333    0.00057870  85 t-inv F
 -0.333333  0.083333  0.416667    0.00057870  85 t-inv F
  0.416667 -0.333333  0.083333    0.00057870  85 t-inv F
  0.083333  0.416667 -0.333333    0.00057870  85 t-inv F
  0.083333 -0.250000  0.416667    0.00057870  86 t-inv F
  0.416667  0.083333 -0.250000    0.00057870  86 t-inv F
 -0.250000  0.083333  0.416667    0.00057870  86 t-inv F
  0.416667 -0.250000  0.083333    0.00057870  86 t-inv F
  0.083333  0.416667 -0.250000    0.00057870  86 t-inv F
  0.083333 -0.166667  0.416667    0.00057870  87 t-inv F
  0.416667  0.083333 -0.166667    0.00057870  87 t-inv F
 -0.166667  0.083333  0.416667    0.00057870  87 t-inv F
  0.416667 -0.166667  0.083333    0.00057870  87 t-inv F
  0.083333  0.416667 -0.166667    0.00057870  87 t-inv F
  0.083333 -0.083333  0.416667    0.00057870  88 t-inv F
  0.416667  0.083333 -0.083333    0.00057870  88 t-inv F
 -0.083333  0.083333  0.416667    0.00057870  88 t-inv F
  0.416667 -0.083333  0.083333    0.00057870  88 t-inv F
  0.083333  0.416667 -0.083333    0.00057870  88 t-inv F
  0.083333  0.500000  0.500000    0.00057870  89 t-inv F
  0.500000  0.083333  0.500000    0.00057870  89 t-inv F
  0.083333 -0.416667  0.500000    0.00057870  90 t-inv F
  0.500000  0.083333 -0.416667    0.00057870  90 t-inv F
 -0.416667  0.083333  0.500000    0.00057870  90 t-inv F
  0.500000 -0.416667  0.083333    0.00057870  90 t-inv F
  0.083333  0.500000 -0.416667    0.00057870  90 t-inv F
  0.083333 -0.333333  0.500000    0.00057870  91 t-inv F
  0.500000  0.083333 -0.333333    0.00057870  91 t-inv F
 -0.333333  0.083333  0.500000    0.00057870  91 t-inv F
  0.500000 -0.333333  0.083333    0.00057870  91 t-inv F
  0.083333  0.500000 -0.333333    0.00057870  91 t-inv F
  0.083333 -0.250000  0.500000    0.00057870  92 t-inv F
  0.500000  0.083333 -0.250000    0.00057870  92 t-inv F
 -0.250000  0.083333  0.500000    0.00057870  92 t-inv F
  0.500000 -0.250000  0.083333    0.00057870  92 t-inv F
  0.083333  0.500000 -0.250000    0.00057870  92 t-inv F
  0.083333 -0.166667  0.500000    0.00057870  93 t-inv F
  0.500000  0.083333 -0.166667    0.00057870  93 t-inv F
 -0.166667  0.083333  0.500000    0.00057870  93 t-inv F
  0.500000 -0.166667  0.083333    0.00057870  93 t-inv F
  0.083333  0.500000 -0.166667    0.00057870  93 t-inv F
  0.083333 -0.083333  0.500000    0.00057870  94 t-inv F
  0.500000  0.083333 -0.083333    0.00057870  94 t-inv F
 -0.083333  0.083333  0.500000    0.00057870  94 t-inv F
  0.500000 -0.083333  0.083333    0.00057870  94 t-inv F
  0.083333  0.500000 -0.083333    0.00057870  94 t-inv F
  0.083333 -0.416667 -0.416667    0.00057870  95 t-inv F
 -0.416667  0.083333 -0.416667    0.00057870  95 t-inv F
  0.083333 -0.333333 -0.416667    0.00057870  96 t-inv F
 -0.416667  0.083333 -0.333333    0.00057870  96 t-inv F
 -0.333333  0.083333 -0.416667    0.00057870  96 t-inv F
 -0.416667 -0.333333  0.083333    0.00057870  96 t-inv F
  0.083333 -0.416667 -0.333333    0.00057870  96 t-inv F
  0.083333 -0.250000 -0.416667    0.00057870  97 t-inv F
 -0.416667  0.083333 -0.250000    0.00057870  97 t-inv F
 -0.250000  0.083333 -0.416667    0.00057870  97 t-inv F
 -0.416667 -0.250000  0.083333    0.00057870  97 t-inv F
  0.083333 -0.416667 -0.250000    0.00057870  97 t-inv F
  0.083333 -0.166667 -0.416667    0.00057870  98 t-inv F
 -0.416667  0.083333 -0.166667    0.00057870  98 t-inv F
 -0.166667  0.083333 -0.416667    0.00057870  98 t-inv F
 -0.416667 -0.166667  0.083333    0.00057870  98 t-inv F
  0.083333 -0.416667 -0.166667    0.00057870  98 t-inv F
  0.083333 -0.333333 -0.333333    0.00057870  99 t-inv F
 -0.333333  0.083333 -0.333333    0.00057870  99 t-inv F
  0.083333 -0.250000 -0.333333    0.00057870 100 t-inv F
 -0.333333  0.083333 -0.250000    0.00057870 100 t-inv F
 -0.250000  0.083333 -0.333333    0.00057870 100 t-inv F
 -0.333333 -0.250000  0.083333    0.00057870 100 t-inv F
  0.083333 -0.333333 -0.250000    0.00057870 100 t-inv F
  0.083333 -0.166667 -0.333333    0.00057870 101 t-inv F
 -0.333333  0.083333 -0.166667    0.00057870 101 t-inv F
 -0.166667  0.083333 -0.333333    0.00057870 101 t-inv F
 -0.333333 -0.166667  0.083333    0.00057870 101 t-inv F
  0.083333 -0.333333 -0.166667    0.00057870 101 t-inv F
  0.083333 -0.250000 -0.250000    0.00057870 102 t-inv F
 -0.250000  0.083333 -0.250000    0.00057870 102 t-inv F
  0.083333 -0.166667 -0.250000    0.00057870 103 t-inv F
 -0.250000  0.083333 -0.166667    0.00057870 103 t-inv F
 -0.166667  0.083333 -0.250000    0.00057870 103 t-inv F
 -0.250000 -0.166667  0.083333    0.00057870 103 t-inv F
  0.083333 -0.250000 -0.166667    0.00057870 103 t-inv F
  0.083333 -0.166667 -0.166667    0.00057870 104 t-inv F
 -0.166667  0.083333 -0.166667    0.00057870 104 t-inv F
  0.166667  0.250000  0.166667    0.00057870 106 t-inv F
  0.166667  0.166667  0.250000    0.00057870 106 t-inv F
  0.166667  0.333333  0.166667    0.00057870 107 t-inv F
  0.166667  0.166667  0.333333    0.00057870 107 t-inv F
  0.166667  0.416667  0.166667    0.00057870 108 t-inv F
  0.166667  0.166667  0.416667    0.00057870 108 t-inv F
  0.166667  0.500000  0.166667    0.00057870 109 t-inv F
  0.166667  0.166667  0.500000    0.00057870 109 t-inv F
  0.166667 -0.416667  0.166667    0.00057870 110 t-inv F
  0.166667  0.166667 -0.416667    0.00057870 110 t-inv F
  0.166667 -0.333333  0.166667    0.00057870 111 t-inv F
  0.166667  0.166667 -0.333333    0.00057870 111 t-inv F
  0.166667 -0.250000  0.166667    0.00057870 112 t-inv F
  0.166667  0.166667 -0.250000    0.00057870 112 t-inv F
  0.166667 -0.166667  0.166667    0.00057870 113 t-inv F
  0.166667  0.166667 -0.166667    0.00057870 113 t-inv F
  0.166667  0.250000  0.250000    0.00057870 114 t-inv F
  0.250000  0.166667  0.250000    0.00057870 114 t-inv F
  0.166667  0.333333  0.250000    0.00057870 115 t-inv F
  0.250000  0.166667  0.333333    0.00057870 115 t-inv F
  0.333333  0.166667  0.250000    0.00057870 115 t-inv F
  0.250000  0.333333  0.166667    0.00057870 115 t-inv F
  0.166667  0.250000  0.333333    0.00057870 115 t-inv F
  0.166667  0.416667  0.250000    0.00057870 116 t-inv F
  0.250000  0.166667  0.416667    0.00057870 116 t-inv F
  0.416667  0.166667  0.250000    0.00057870 116 t-inv F
  0.250000  0.416667  0.166667    0.00057870 116 t-inv F
  0.166667  0.250000  0.416667    0.00057870 116 t-inv F
  0.166667  0.500000  0.250000    0.00057870 117 t-inv F
  0.250000  0.166667  0.500000    0.00057870 117 t-inv F
  0.500000  0.166667  0.250000    0.00057870 117 t-inv F
  0.250000  0.500000  0.166667    0.00057870 117 t-inv F
  0.166667  0.250000  0.500000    0.00057870 117 t-inv F
  0.166667 -0.416667  0.250000    0.00057870 118 t-inv F
  0.250000  0.166667 -0.416667    0.00057870 118 t-inv F
 -0.416667  0.166667  0.250000    0.00057870 118 t-inv F
  0.250000 -0.416667  0.166667    0.00057870 118 t-inv F
  0.166667  0.250000 -0.416667    0.00057870 118 t-inv F
  0.166667 -0.333333  0.250000    0.00057870 119 t-inv F
  0.250000  0.166667 -0.333333    0.00057870 119 t-inv F
 -0.333333  0.166667  0.250000    0.00057870 119 t-inv F
  0.250000 -0.333333  0.166667    0.00057870 119 t-inv F
  0.166667  0.250000 -0.333333    0.00057870 119 t-inv F
  0.166667 -0.250000  0.250000    0.00057870 120 t-inv F
  0.250000  0.166667 -0.250000    0.00057870 120 t-inv F
 -0.250000  0.166667  0.250000    0.00057870 120 t-inv F
  0.250000 -0.250000  0.166667    0.00057870 120 t-inv F
  0.166667  0.250000 -0.250000    0.00057870 120 t-inv F
  0.166667 -0.166667  0.250000    0.00057870 121 t-inv F
  0.250000  0.166667 -0.166667    0.00057870 121 t-inv F
 -0.166667  0.166667  0.250000    0.00057870 121 t-inv F
  0.250000 -0.166667  0.166667    0.00057870 121 t-inv F
  0.166667  0.250000 -0.166667    0.00057870 121 t-inv F
  0.166667  0.333333  0.333333    0.00057870 122 t-inv F
  0.333333  0.166667  0.333333    0.00057870 122 t-inv F
  0.166667  0.416667  0.333333    0.00057870 123 t-inv F
  0.333333  0.166667  0.416667    0.00057870 123 t-inv F
  0.416667  0.166667  0.333333    0.00057870 123 t-inv F
  0.333333  0.416667  0.166667    0.00057870 123 t-inv F
  0.166667  0.333333  0.416667    0.00057870 123 t-inv F
  0.166667  0.500000  0.333333    0.00057870 124 t-inv F
  0.333333  0.166667  0.500000    0.00057870 124 t-inv F
  0.500000  0.166667  0.333333    0.00057870 124 t-inv F
  0.333333  0.500000  0.166667    0.00057870 124 t-inv F
  0.166667  0.333333  0.500000    0.00057870 124 t-inv F
  0.166667 -0.416667  0.333333    0.00057870 125 t-inv F
  0.333333  0.166667 -0.416667    0.00057870 125 t-inv F
 -0.416667  0.166667  0.333333    0.00057870 125 t-inv F
  0.333333 -0.416667  0.166667    0.00057870 125 t-inv F
  0.166667  0.333333 -0.416667    0.00057870 125 t-inv F
  0.166667 -0.333333  0.333333    0.00057870 126 t-inv F
  0.333333  0.166667 -0.333333    0.00057870 126 t-inv F
 -0.333333  0.166667  0.333333    0.00057870 126 t-inv F
  0.333333 -0.333333  0.166667    0.00057870 126 t-inv F
  0.166667  0.333333 -0.333333    0.00057870 126 t-inv F
  0.166667 -0.250000  0.333333    0.00057870 127 t-inv F
  0.333333  0.166667 -0.250000    0.00057870 127 t-inv F
 -0.250000  0.166667  0.333333    0.00057870 127 t-inv F
  0.333333 -0.250000  0.166667    0.00057870 127 t-inv F
  0.166667  0.333333 -0.250000    0.00057870 127 t-inv F
  0.166667 -0.166667  0.333333    0.00057870 128 t-inv F
  0.333333  0.166667 -0.166667    0.00057870 128 t-inv F
 -0.166667  0.166667  0.333333    0.00057870 128 t-inv F
  0.333333 -0.166667  0.166667    0.00057870 128 t-inv F
  0.166667  0.333333 -0.166667    0.00057870 128 t-inv F
  0.166667  0.416667  0.416667    0.00057870 129 t-inv F
  0.416667  0.166667  0.416667    0.00057870 129 t-inv F
  0.166667  0.500000  0.416667    0.00057870 130 t-inv F
  0.416667  0.166667  0.500000    0.00057870 130 t-inv F
  0.500000  0.166667  0.416667    0.00057870 130 t-inv F
  0.416667  0.500000  0.166667    0.00057870 130 t-inv F
  0.166667  0.416667  0.500000    0.00057870 130 t-inv F
  0.166667 -0.416667  0.416667    0.00057870 131 t-inv F
  0.416667  0.166667 -0.416667    0.00057870 131 t-inv F
 -0.416667  0.166667  0.416667    0.00057870 131 t-inv F
  0.416667 -0.416667  0.166667    0.00057870 131 t-inv F
  0.166667  0.416667 -0.416667    0.00057870 131 t-inv F
  0.166667 -0.333333  0.416667    0.00057870 132 t-inv F
  0.416667  0.166667 -0.333333    0.00057870 132 t-inv F
 -0.333333  0.166667  0.416667    0.00057870 132 t-inv F
  0.416667 -0.333333  0.166667    0.00057870 132 t-inv F
  0.166667  0.416667 -0.333333    0.00057870 132 t-inv F
  0.166667 -0.250000  0.416667    0.00057870 133 t-inv F
  0.416667  0.166667 -0.250000    0.00057870 133 t-inv F
 -0.250000  0.166667  0.416667    0.00057870 133 t-inv F
  0.416667 -0.250000  0.166667    0.00057870 133 t-inv F
  0.166667  0.416667 -0.250000    0.00057870 133 t-inv F
  0.166667 -0.166667  0.416667    0.00057870 134 t-inv F
  0.416667  0.166667 -0.166667    0.00057870 134 t-inv F
 -0.166667  0.166667  0.416667    0.00057870 134 t-inv F
  0.416667 -0.166667  0.166667    0.00057870 134 t-inv F
  0.166667  0.416667 -0.166667    0.00057870 134 t-inv F
  0.166667  0.500000  0.500000    0.00057870 135 t-inv F
  0.500000  0.166667  0.500000    0.00057870 135 t-inv F
  0.166667 -0.416667  0.500000    0.00057870 136 t-inv F
  0.500000  0.166667 -0.416667    0.00057870 136 t-inv F
 -0.416667  0.166667  0.500000    0.00057870 136 t-inv F
  0.500000 -0.416667  0.166667    0.00057870 136 t-inv F
  0.166667  0.500000 -0.416667    0.00057870 136 t-inv F
  0.166667 -0.333333  0.500000    0.00057870 137 t-inv F
  0.500000  0.166667 -0.333333    0.00057870 137 t-inv F
 -0.333333  0.166667  0.500000    0.00057870 137 t-inv F
  0.500000 -0.333333  0.166667    0.00057870 137 t-inv F
  0.166667  0.500000 -0.333333    0.00057870 137 t-inv F
  0.166667 -0.250000  0.500000    0.00057870 138 t-inv F
  0.500000  0.166667 -0.250000    0.00057870 138 t-inv F
 -0.250000  0.166667  0.500000    0.00057870 138 t-inv F
  0.500000 -0.250000  0.166667    0.00057870 138 t-inv F
  0.166667  0.500000 -0.250000    0.00057870 138 t-inv F
  0.166667 -0.166667  0.500000    0.00057870 139 t-inv F
  0.500000  0.166667 -0.166667    0.00057870 139 t-inv F
 -0.166667  0.166667  0.500000    0.00057870 139 t-inv F
  0.500000 -0.166667  0.166667    0.00057870 139 t-inv F
  0.166667  0.500000 -0.166667    0.00057870 139 t-inv F
  0.166667 -0.416667 -0.416667    0.00057870 140 t-inv F
 -0.416667  0.166667 -0.416667    0.00057870 140 t-inv F
  0.166667 -0.333333 -0.416667    0.00057870 141 t-inv F
 -0.416667  0.166667 -0.333333    0.00057870 141 t-inv F
 -0.333333  0.166667 -0.416667    0.00057870 141 t-inv F
 -0.416667 -0.333333  0.166667    0.00057870 141 t-inv F
  0.166667 -0.416667 -0.333333    0.00057870 141 t-inv F
  0.166667 -0.250000 -0.416667    0.00057870 142 t-inv F
 -0.416667  0.166667 -0.250000    0.00057870 142 t-inv F
 -0.250000  0.166667 -0.416667    0.00057870 142 t-inv F
 -0.416667 -0.250000  0.166667    0.00057870 142 t-inv F
  0.166667 -0.416667 -0.250000    0.00057870 142 t-inv F
  0.166667 -0.333333 -0.333333    0.00057870 143 t-inv F
 -0.333333  0.166667 -0.333333    0.00057870 143 t-inv F
  0.166667 -0.250000 -0.333333    0.00057870 144 t-inv F
 -0.333333  0.166667 -0.250000    0.00057870 144 t-inv F
 -0.250000  0.166667 -0.333333    0.00057870 144 t-inv F
 -0.333333 -0.250000  0.166667    0.00057870 144 t-inv F
  0.166667 -0.333333 -0.250000    0.00057870 144 t-inv F
  0.166667 -0.250000 -0.250000    0.00057870 145 t-inv F
 -0.250000  0.166667 -0.250000    0.00057870 145 t-inv F
  0.250000  0.333333  0.250000    0.00057870 147 t-inv F
  0.250000  0.250000  0.333333    0.00057870 147 t-inv F
  0.250000  0.416667  0.250000    0.00057870 148 t-inv F
  0.250000  0.250000  0.416667    0.00057870 148 t-inv F
  0.250000  0.500000  0.250000    0.00057870 149 t-inv F
  0.250000  0.250000  0.500000    0.00057870 149 t-inv F
  0.250000 -0.416667  0.250000    0.00057870 150 t-inv F
  0.250000  0.250000 -0.416667    0.00057870 150 t-inv F
  0.250000 -0.333333  0.250000    0.00057870 151 t-inv F
  0.250000  0.250000 -0.333333    0.00057870 151 t-inv F
  0.250000 -0.250000  0.250000    0.00057870 152 t-inv F
  0.250000  0.250000 -0.250000    0.00057870 152 t-inv F
  0.250000  0.333333  0.333333    0.00057870 153 t-inv F
  0.333333  0.250000  0.333333    0.00057870 153 t-inv F
  0.250000  0.416667  0.333333    0.00057870 154 t-inv F
  0.333333  0.250000  0.416667    0.00057870 154 t-inv F
  0.416667  0.250000  0.333333    0.00057870 154 t-inv F
  0.333333  0.416667  0.250000    0.00057870 154 t-inv F
  0.250000  0.333333  0.416667    0.00057870 154 t-inv F
  0.250000  0.500000  0.333333    0.00057870 155 t-inv F
  0.333333  0.250000  0.500000    0.00057870 155 t-inv F
  0.500000  0.250000  0.333333    0.00057870 155 t-inv F
  0.333333  0.500000  0.250000    0.00057870 155 t-inv F
  0.250000  0.333333  0.500000    0.00057870 155 t-inv F
  0.250000 -0.416667  0.333333    0.00057870 156 t-inv F
  0.333333  0.250000 -0.416667    0.00057870 156 t-inv F
 -0.416667  0.250000  0.333333    0.00057870 156 t-inv F
  0.333333 -0.416667  0.250000    0.00057870 156 t-inv F
  0.250000  0.333333 -0.416667    0.00057870 156 t-inv F
  0.250000 -0.333333  0.333333    0.00057870 157 t-inv F
  0.333333  0.250000 -0.333333    0.00057870 157 t-inv F
 -0.333333  0.250000  0.333333    0.00057870 157 t-inv F
  0.333333 -0.333333  0.250000    0.00057870 157 t-inv F
  0.250000  0.333333 -0.333333    0.00057870 157 t-inv F
  0.250000 -0.250000  0.333333    0.00057870 158 t-inv F
  0.333333  0.250000 -0.250000    0.00057870 158 t-inv F
 -0.250000  0.250000  0.333333    0.00057870 158 t-inv F
  0.333333 -0.250000  0.250000    0.00057870 158 t-inv F
  0.250000  0.333333 -0.250000    0.00057870 158 t-inv F
  0.250000  0.416667  0.416667    0.00057870 159 t-inv F
  0.416667  0.250000  0.416667    0.00057870 159 t-inv F
  0.250000  0.500000  0.416667    0.00057870 160 t-inv F
  0.416667  0.250000  0.500000    0.00057870 160 t-inv F
  0.500000  0.250000  0.416667    0.00057870 160 t-inv F
  0.416667  0.500000  0.250000    0.00057870 160 t-inv F
  0.250000  0.416667  0.500000    0.00057870 160 t-inv F
  0.250000 -0.416667  0.416667    0.00057870 161 t-inv F
  0.416667  0.250000 -0.416667    0.00057870 161 t-inv F
 -0.416667  0.250000  0.416667    0.00057870 161 t-inv F
  0.416667 -0.416667  0.250000    0.00057870 161 t-inv F
  0.250000  0.416667 -0.416667    0.00057870 161 t-inv F
  0.250000 -0.333333  0.416667    0.00057870 162 t-inv F
  0.416667  0.250000 -0.333333    0.00057870 162 t-inv F
 -0.333333  0.250000  0.416667    0.00057870 162 t-inv F
  0.416667 -0.333333  0.250000    0.00057870 162 t-inv F
  0.250000  0.416667 -0.333333    0.00057870 162 t-inv F
  0.250000 -0.250000  0.416667    0.00057870 163 t-inv F
  0.416667  0.250000 -0.250000    0.00057870 163 t-inv F
 -0.250000  0.250000  0.416667    0.00057870 163 t-inv F
  0.416667 -0.250000  0.250000    0.00057870 163 t-inv F
  0.250000  0.416667 -0.250000    0.00057870 163 t-inv F
  0.250000  0.500000  0.500000    0.00057870 164 t-inv F
  0.500000  0.250000  0.500000    0.00057870 164 t-inv F
  0.250000 -0.416667  0.500000    0.00057870 165 t-inv F
  0.500000  0.250000 -0.416667    0.00057870 165 t-inv F
 -0.416667  0.250000  0.500000    0.00057870 165 t-inv F
  0.500000 -0.416667  0.250000    0.00057870 165 t-inv F
  0.250000  0.500000 -0.416667    0.00057870 165 t-inv F
  0.250000 -0.333333  0.500000    0.00057870 166 t-inv F
  0.500000  0.250000 -0.333333    0.00057870 166 t-inv F
 -0.333333  0.250000  0.500000    0.00057870 166 t-inv F
  0.500000 -0.333333  0.250000    0.00057870 166 t-inv F
  0.250000  0.500000 -0.333333    0.00057870 166 t-inv F
  0.250000 -0.250000  0.500000    0.00057870 167 t-inv F
  0.500000  0.250000 -0.250000    0.00057870 167 t-inv F
 -0.250000  0.250000  0.500000    0.00057870 167 t-inv F
  0.500000 -0.250000  0.250000    0.00057870 167 t-inv F
  0.250000  0.500000 -0.250000    0.00057870 167 t-inv F
  0.250000 -0.416667 -0.416667    0.00057870 168 t-inv F
 -0.416667  0.250000 -0.416667    0.00057870 168 t-inv F
  0.250000 -0.333333 -0.416667    0.00057870 169 t-inv F
 -0.416667  0.250000 -0.333333    0.00057870 169 t-inv F
 -0.333333  0.250000 -0.416667    0.00057870 169 t-inv F
 -0.416667 -0.333333  0.250000    0.00057870 169 t-inv F
  0.250000 -0.416667 -0.333333    0.00057870 169 t-inv F
[...]
      4       0.0000      0.00000
      5       0.0000      0.00000
      6       0.0000      0.00000
      7       0.0000      0.00000
      8      -0.0000      0.00000
      9       0.0000      0.00000
     10       0.0000      0.00000
     11       0.0000      0.00000
     12       0.0000      0.00000
     13      -0.0000      0.00000
     14       0.0000      0.00000
     15      -0.0000      0.00000
     16       0.0000      0.00000

 k-point 465 :       0.0833   -0.4167    0.4167
  band No.  band energies     occupation 
      1       0.0000      0.00000
      2       0.0000      0.00000
      3       0.0000      0.00000
      4       0.0000      0.00000
      5       0.0000      0.00000
      6       0.0000      0.00000
      7       0.0000      0.00000
      8      -0.0000      0.00000
      9       0.0000      0.00000
     10       0.0000      0.00000
     11       0.0000      0.00000
     12       0.0000      0.00000
     13      -0.0000      0.00000
     14       0.0000      0.00000
     15      -0.0000      0.00000
     16       0.0000      0.00000

 k-point 466 :       0.1667   -0.4167    0.4167
  band No.  band energies     occupation 
      1       0.0000      0.00000
      2       0.0000      0.00000
      3       0.0000      0.00000
      4       0.0000      0.00000
      5       0.0000      0.00000
      6       0.0000      0.00000
      7       0.0000      0.00000
      8      -0.0000      0.00000
      9       0.0000      0.00000
     10       0.0000      0.00000
     11       0.0000      0.00000
     12       0.0000      0.00000
     13      -0.0000      0.00000
     14       0.0000      0.00000
     15       0.0000      0.00000
     16      -0.0000      0.00000

 k-point 467 :       0.2500   -0.4167    0.4167
  band No.  band energies     occupation 
      1       0.0000      0.00000
      2       0.0000      0.00000
      3       0.0000      0.00000
      4       0.0000      0.00000
      5       0.0000      0.00000
      6       0.0000      0.00000
      7       0.0000      0.00000
      8      -0.0000      0.00000
      9       0.0000      0.00000
     10       0.0000      0.00000
     11       0.0000      0.00000
     12       0.0000      0.00000
     13      -0.0000      0.00000
     14       0.0000      0.00000
     15       0.0000      0.00000
     16      -0.0000      0.00000

 k-point 468 :       0.3333   -0.4167    0.4167
  band No.  band energies     occupation 
      1       0.0000      0.00000
      2       0.0000      0.00000
      3       0.0000      0.00000
      4       0.0000      0.00000
      5       0.0000      0.00000
      6       0.0000      0.00000
      7       0.0000      0.00000
      8      -0.0000      0.00000
      9       0.0000      0.00000
     10       0.0000      0.00000
     11       0.0000      0.00000
     12       0.0000      0.00000
     13       0.0000      0.00000
     14       0.0000      0.00000
     15       0.0000      0.00000
     16      -0.0000      0.00000

 k-point 469 :       0.4167   -0.4167    0.4167
  band No.  band energies     occupation 
      1       0.0000      0.00000
      2       0.0000      0.00000
      3       0.0000      0.00000
      4       0.0000      0.00000
      5       0.0000      0.00000
      6       0.0000      0.00000
      7       0.0000      0.00000
      8      -0.0000      0.00000
      9       0.0000      0.00000
     10       0.0000      0.00000
     11      -0.0000      0.00000
     12       0.0000      0.00000
     13       0.0000      0.00000
     14       0.0000      0.00000
     15       0.0000      0.00000
     16       0.0000      0.00000

 k-point 470 :       0.5000   -0.4167    0.4167
  band No.  band energies     occupation 
      1       0.0000      0.00000
      2       0.0000      0.00000
      3       0.0000      0.00000
      4       0.0000      0.00000
      5       0.0000      0.00000
      6       0.0000      0.00000
      7       0.0000      0.00000
      8       0.0000      0.00000
      9       0.0000      0.00000
     10      -0.0000      0.00000
     11       0.0000      0.00000
     12      -0.0000      0.00000
     13       0.0000      0.00000
     14       0.0000      0.00000
     15      -0.0000      0.00000
     16       0.0000      0.00000

 k-point 471 :       0.0000    0.5000    0.5000
  band No.  band energies     occupation 
      1       0.0000      0.00000
      2       0.0000      0.00000
      3       0.0000      0.00000
      4       0.0000      0.00000
      5       0.0000      0.00000
      6       0.0000      0.00000
      7       0.0000      0.00000
      8      -0.0000      0.00000
      9       0.0000      0.00000
     10       0.0000      0.00000
     11       0.0000      0.00000
     12       0.0000      0.00000
     13       0.0000      0.00000
     14      -0.0000      0.00000
     15      -0.0001      0.00000
     16       0.0000      0.00000

 k-point 472 :       0.0833    0.5000    0.5000
  band No.  band energies     occupation 
      1       0.0000      0.00000
      2       0.0000      0.00000
      3       0.0000      0.00000
      4       0.0000      0.00000
      5       0.0000      0.00000
      6       0.0000      0.00000
      7       0.0000      0.00000
      8       0.0000      0.00000
      9       0.0000      0.00000
     10       0.0000      0.00000
     11       0.0000      0.00000
     12       0.0000      0.00000
     13      -0.0000      0.00000
     14       0.0000      0.00000
     15       0.0000      0.00000
     16       0.0000      0.00000

 k-point 473 :       0.1667    0.5000    0.5000
  band No.  band energies     occupation 
      1       0.0000      0.00000
      2       0.0000      0.00000
      3       0.0000      0.00000
      4       0.0000      0.00000
      5       0.0000      0.00000
      6       0.0000      0.00000
      7       0.0000      0.00000
      8      -0.0000      0.00000
      9       0.0000      0.00000
     10       0.0000      0.00000
     11       0.0000      0.00000
     12       0.0000      0.00000
     13      -0.0000      0.00000
     14       0.0000      0.00000
     15       0.0000      0.00000
     16       0.0000      0.00000

 k-point 474 :       0.2500    0.5000    0.5000
  band No.  band energies     occupation 
      1       0.0000      0.00000
      2       0.0000      0.00000
      3       0.0000      0.00000
      4       0.0000      0.00000
      5       0.0000      0.00000
      6       0.0000      0.00000
      7       0.0000      0.00000
      8       0.0000      0.00000
      9       0.0000      0.00000
     10       0.0000      0.00000
     11       0.0000      0.00000
     12       0.0000      0.00000
     13      -0.0000      0.00000
     14       0.0000      0.00000
     15       0.0000      0.00000
     16       0.0000      0.00000

 k-point 475 :       0.3333    0.5000    0.5000
  band No.  band energies     occupation 
      1       0.0000      0.00000
      2       0.0000      0.00000
      3       0.0000      0.00000
      4       0.0000      0.00000
      5       0.0000      0.00000
      6       0.0000      0.00000
      7       0.0000      0.00000
      8       0.0000      0.00000
      9      -0.0000      0.00000
     10       0.0000      0.00000
     11       0.0000      0.00000
     12       0.0000      0.00000
     13      -0.0000      0.00000
     14       0.0000      0.00000
     15      -0.0000      0.00000
     16       0.0000      0.00000

 k-point 476 :       0.4167    0.5000    0.5000
  band No.  band energies     occupation 
      1       0.0000      0.00000
      2       0.0000      0.00000
      3       0.0000      0.00000
      4       0.0000      0.00000
      5       0.0000      0.00000
      6       0.0000      0.00000
      7       0.0000      0.00000
      8      -0.0000      0.00000
      9       0.0000      0.00000
     10       0.0000      0.00000
     11       0.0000      0.00000
     12       0.0000      0.00000
     13      -0.0000      0.00000
     14       0.0000      0.00000
     15      -0.0000      0.00000
     16      -0.0000      0.00000


------------------------ aborting loop because EDIFF is reached ----------------------------------------


    FORLOC:  cpu time    0.0013: real time    0.0013
    FORNL :  cpu time    0.2968: real time    0.2968
    STRESS:  cpu time    2.9501: real time    2.9503
    FORCOR:  cpu time    0.0126: real time    0.0126
    OFIELD:  cpu time    0.0001: real time    0.0001
    FORLOC:  cpu time    0.0014: real time    0.0014
    FORNL :  cpu time    0.2966: real time    0.2966
    STRESS:  cpu time    2.9515: real time    2.9517
    FORCOR:  cpu time    0.0128: real time    0.0128
    OFIELD:  cpu time    0.0001: real time    0.0001
    FORLOC:  cpu time    0.0013: real time    0.0013
    FORNL :  cpu time    0.2965: real time    0.2966
    STRESS:  cpu time    2.9475: real time    2.9477
    FORCOR:  cpu time    0.0126: real time    0.0126
    OFIELD:  cpu time    0.0001: real time    0.0001
    FORLOC:  cpu time    0.0011: real time    0.0011
    FORNL :  cpu time    0.2966: real time    0.2966
    STRESS:  cpu time    2.9517: real time    2.9519
    FORCOR:  cpu time    0.0126: real time    0.0126
    OFIELD:  cpu time    0.0001: real time    0.0001

 INTERNAL STRAIN TENSOR  FOR ION    2  DIRECTION 1   (eV/Angst):
 -----------------------------------------------------------------------------
    -0.00019 -0.00056 -0.00056
    -0.00057  0.00012 -0.00007
    -0.00057 -0.00007  0.00012


 POSITION                   FORCE-CONSTANT FOR ION    2 DIRECTION 1 (eV/Angst/Angst)
 -----------------------------------------------------------------------------------
      0.00000      0.00000      0.00000         0.253550      0.000030      0.000030
      1.91873      1.91873      1.91873        -0.253550     -0.000030     -0.000030
 -----------------------------------------------------------------------------------
    total drift:                                0.000000      0.000000      0.000000


 BORN EFFECTIVE CHARGE FOR ION    2 DIRECTION 1 :  -2.031   0.000   0.000
                   rigid augmentation           :   0.952   0.000   0.000
                   ionic contribution           :   7.000   0.000   0.000
                   Berry contribution           :  -9.982   0.000   0.000


--------------------------------------------------------------------------------------------------------


  LATTYP: Found a simple cubic cell.
 ALAT       =     3.8374670852
  
  Lattice vectors:
  
 A1 = (   3.8374670852,   0.0000000000,   0.0000000000)
 A2 = (   0.0000000000,   3.8374670852,   0.0000000000)
 A3 = (   0.0000000000,   0.0000000000,   3.8374670852)


Analysis of symmetry for initial positions (statically):
=====================================================================
 Subroutine PRICEL returns:
 Original cell was already a primitive cell.
 

 Routine SETGRP: Setting up the symmetry group for a 
 simple cubic supercell.


 Subroutine GETGRP returns: Found  6 space group operations
 (whereof  6 operations were pure point group operations)
 out of a pool of 48 trial point group operations.


The static configuration has the point symmetry C_3v.


Analysis of symmetry for dynamics (positions and initial velocities):
=====================================================================
 Subroutine PRICEL returns:
 Original cell was already a primitive cell.
 

 Routine SETGRP: Setting up the symmetry group for a 
 simple cubic supercell.


 Subroutine GETGRP returns: Found  6 space group operations
 (whereof  6 operations were pure point group operations)
 out of a pool of 48 trial point group operations.


The dynamic configuration has the point symmetry C_3v.


 Subroutine INISYM returns: Found  6 space group operations
 (whereof  6 operations are pure point group operations),
 and found     1 'primitive' translations



--------------------------------------------------------------------------------------------------------




 MACROSCOPIC STATIC DIELECTRIC TENSOR (including local field effects in DFT)
 ------------------------------------------------------
           5.302714    -0.000000    -0.000000
          -0.000000     5.302714    -0.000000
          -0.000000    -0.000000     5.302714
 ------------------------------------------------------


 PIEZOELECTRIC TENSOR  for field in x, y, z        (e  Angst)
          XX          YY          ZZ          XY          YZ          ZX
  --------------------------------------------------------------------------------
  x     0.00011    -0.00002    -0.00002     0.00005     0.00007     0.00005
  y    -0.00006     0.00025    -0.00006     0.00002     0.00002     0.00007
  z    -0.00043    -0.00043     0.00099     0.00000     0.00001     0.00001

 PIEZOELECTRIC TENSOR  for field in x, y, z        (C/m^2)
          XX          YY          ZZ          XY          YZ          ZX
  --------------------------------------------------------------------------------
  x     0.00013    -0.00005    -0.00005     0.00001     0.00001     0.00001
  y    -0.00005     0.00013    -0.00005     0.00001     0.00001     0.00001
  z    -0.00005    -0.00005     0.00013     0.00001     0.00001     0.00001
 
 BORN EFFECTIVE CHARGES (in e, cummulative output)
 -------------------------------------------------
 ion    1
    1     2.03067    -0.00000    -0.00000
    2    -0.00000     2.03066    -0.00000
    3    -0.00000    -0.00000     2.03067
 ion    2
    1    -2.03067     0.00000     0.00000
    2     0.00000    -2.03066     0.00000
    3     0.00000     0.00000    -2.03067

 INTERNAL STRAIN TENSOR FOR ION    1 for displacements in x,y,z  (eV/Angst):
          X           Y           Z          XY          YZ          ZX
  --------------------------------------------------------------------------------
  x    -0.00002    -0.00007    -0.00007     0.00018    -0.00022     0.00018
  y    -0.00007    -0.00002    -0.00007     0.00018     0.00018    -0.00022
  z    -0.00007    -0.00007    -0.00002    -0.00022     0.00018     0.00018

 INTERNAL STRAIN TENSOR FOR ION    2 for displacements in x,y,z  (eV/Angst):
          X           Y           Z          XY          YZ          ZX
  --------------------------------------------------------------------------------
  x    -0.00019     0.00012     0.00012    -0.00057    -0.00007    -0.00056
  y     0.00012    -0.00019     0.00012    -0.00056    -0.00057    -0.00007
  z     0.00012     0.00012    -0.00019    -0.00007    -0.00056    -0.00057


--------------------------------------------------------------------------------------------------------


 
 SECOND DERIVATIVES (NOT SYMMETRIZED)
 ------------------------------------
               1X          1Y          1Z          2X          2Y          2Z 
  1X    -0.248772    0.000056    0.000056    0.248772   -0.000056   -0.000056
  1Y     0.000056   -0.248772    0.000056   -0.000056    0.248772   -0.000056
  1Z     0.000056    0.000056   -0.248772   -0.000056   -0.000056    0.248772
  2X     0.253550    0.000030    0.000030   -0.253550   -0.000030   -0.000030
  2Y     0.000030    0.253550    0.000030   -0.000030   -0.253550   -0.000030
  2Z     0.000030    0.000030    0.253550   -0.000030   -0.000030   -0.253550
 
 
 Eigenvectors and eigenvalues of the dynamical matrix
 ----------------------------------------------------
 
 
   1 f  =    1.430272 THz     8.986665 2PiTHz   47.708741 cm-1     5.915132 meV
             X         Y         Z           dx          dy          dz
      0.000000  0.000000  0.000000     0.220126    0.220126    0.220126  
      1.918734  1.918734  1.918734    -0.533740   -0.533740   -0.533740  
 
   2 f  =    1.430121 THz     8.985716 2PiTHz   47.703704 cm-1     5.914508 meV
             X         Y         Z           dx          dy          dz
      0.000000  0.000000  0.000000     0.192912    0.115288   -0.308200  
      1.918734  1.918734  1.918734    -0.467514   -0.279396    0.746910  
 
   3 f  =    1.430121 THz     8.985716 2PiTHz   47.703704 cm-1     5.914508 meV
             X         Y         Z           dx          dy          dz
      0.000000  0.000000  0.000000     0.244501   -0.289317    0.044816  
      1.918734  1.918734  1.918734    -0.592538    0.701148   -0.108610  
 
   4 f/i=    0.004710 THz     0.029594 2PiTHz    0.157108 cm-1     0.019479 meV
             X         Y         Z           dx          dy          dz
      0.000000  0.000000  0.000000    -0.531057   -0.198947    0.730004  
      1.918734  1.918734  1.918734    -0.219132   -0.082092    0.301224  
 
   5 f/i=    0.004710 THz     0.029594 2PiTHz    0.157108 cm-1     0.019479 meV
             X         Y         Z           dx          dy          dz
      0.000000  0.000000  0.000000    -0.536330    0.728074   -0.191744  
      1.918734  1.918734  1.918734    -0.221307    0.300427   -0.079120  
 
   6 f/i=    0.004969 THz     0.031223 2PiTHz    0.165760 cm-1     0.020552 meV
             X         Y         Z           dx          dy          dz
      0.000000  0.000000  0.000000     0.533740    0.533740    0.533740  
      1.918734  1.918734  1.918734     0.220126    0.220126    0.220126  
 


--------------------------------------------------------------------------------------------------------




 MACROSCOPIC STATIC DIELECTRIC TENSOR IONIC CONTRIBUTION
 ------------------------------------------------------
          52.569848     0.002546     0.002549
           0.002546    52.569840     0.002546
           0.002549     0.002546    52.569849
 ------------------------------------------------------


 ELASTIC MODULI IONIC CONTR (kBar)
 Direction    XX          YY          ZZ          XY          YZ          ZX
 --------------------------------------------------------------------------------
 XX          -0.0000      0.0000      0.0000     -0.0000      0.0000     -0.0000
 YY           0.0000     -0.0000      0.0000     -0.0000     -0.0000      0.0000
 ZZ           0.0000      0.0000     -0.0000      0.0000     -0.0000     -0.0000
 XY          -0.0000     -0.0000      0.0000     -0.0000     -0.0000     -0.0000
 YZ           0.0000     -0.0000     -0.0000     -0.0000     -0.0000     -0.0000
 ZX          -0.0000      0.0000     -0.0000     -0.0000     -0.0000     -0.0000
 --------------------------------------------------------------------------------


 PIEZOELECTRIC TENSOR IONIC CONTR  for field in x, y, z        (C/m^2)
          XX          YY          ZZ          XY          YZ          ZX
  --------------------------------------------------------------------------------
  x     0.00019    -0.00021    -0.00021     0.00086    -0.00017     0.00085
  y    -0.00021     0.00019    -0.00021     0.00085     0.00086    -0.00017
  z    -0.00021    -0.00021     0.00019    -0.00017     0.00085     0.00086


--------------------------------------------------------------------------------------------------------


     LOOP+:  cpu time  455.6149: real time  455.8745
    4ORBIT:  cpu time    0.0000: real time    0.0000

 total amount of memory used by VASP MPI-rank0   128947. kBytes
=======================================================================

   base      :      30000. kBytes
   nonl-proj :      85399. kBytes
   fftplans  :       1096. kBytes
   grid      :       2745. kBytes
   one-center:         31. kBytes
   wavefun   :       9676. kBytes
 
  
  
 General timing and accounting informations for this job:
 ========================================================
  
                  Total CPU time used (sec):      458.115
                            User time (sec):      452.582
                          System time (sec):        5.534
                         Elapsed time (sec):      458.347
  
                   Maximum memory used (kb):      678668.
                   Average memory used (kb):           0.
  
                          Minor page faults:       209477
                          Major page faults:           14
                 Voluntary context switches:         7363
