<?xml version="1.0" encoding="ISO-8859-1"?>
<modeling>
 <generator>
  <i name="program" type="string">vasp </i>
  <i name="version" type="string">5.4.4.18Apr17-6-g9f103f2a35  </i>
  <i name="subversion" type="string">(build Aug 24 2017 11:22:49) complex            parallel </i>
  <i name="platform" type="string">LinuxIFC </i>
  <i name="date" type="string">2023 12 25 </i>
  <i name="time" type="string">13:07:46 </i>
 </generator>
 <incar>
  <i type="string" name="PREC">accurate</i>
  <i type="string" name="ALGO"> Normal</i>
  <i type="int" name="NELM">   100</i>
  <i type="int" name="IBRION">     8</i>
  <i name="EDIFF">      0.00000001</i>
  <i name="SYMPREC">      0.00000001</i>
  <i name="ENCUT">    520.00000000</i>
  <i type="logical" name="LREAL"> F  </i>
  <i type="int" name="ISMEAR">     0</i>
  <i name="SIGMA">      0.01000000</i>
  <i type="logical" name="LWAVE"> F  </i>
  <v type="int" name="KPOINT_BSE">    -1     0     0     0</v>
  <i type="int" name="NELM">   100</i>
  <i type="logical" name="LPEAD"> T  </i>
  <i type="logical" name="LEPSILON"> T  </i>
 </incar>
 <structure name="primitive_cell" >
  <crystal>
   <varray name="basis" >
    <v>       3.83746709       0.00000000       0.00000000 </v>
    <v>       0.00000000       3.83746709       0.00000000 </v>
    <v>       0.00000000       0.00000000       3.83746709 </v>
   </varray>
   <i name="volume">     56.51112985 </i>
   <varray name="rec_basis" >
    <v>       0.26058855       0.00000000       0.00000000 </v>
    <v>       0.00000000       0.26058855       0.00000000 </v>
    <v>       0.00000000       0.00000000       0.26058855 </v>
   </varray>
  </crystal>
  <varray name="positions" >
   <v>       0.00000000       0.00000000       0.00000000 </v>
   <v>      -0.49999996      -0.49999996      -0.49999996 </v>
  </varray>
 </structure>
 <varray name="primitive_index" >
  <v type="int" >        1 </v>
  <v type="int" >        2 </v>
 </varray>
 <kpoints>
  <generation param="Gamma">
   <v type="int" name="divisions">      12       12       12 </v>
   <v name="usershift">      0.00000000       0.00000000       0.00000000 </v>
   <v name="genvec1">      0.08333333       0.00000000       0.00000000 </v>
   <v name="genvec2">      0.00000000       0.08333333       0.00000000 </v>
   <v name="genvec3">      0.00000000       0.00000000       0.08333333 </v>
   <v name="shift">      0.00000000       0.00000000       0.00000000 </v>
  </generation>
  <varray name="kpointlist" >
   <v>       0.00000000       0.00000000       0.00000000 </v>
   <v>       0.08333333       0.00000000       0.00000000 </v>
   <v>       0.16666667       0.00000000       0.00000000 </v>
   <v>       0.25000000       0.00000000       0.00000000 </v>
   <v>       0.33333333       0.00000000       0.00000000 </v>
   <v>       0.41666667       0.00000000       0.00000000 </v>
   <v>       0.50000000       0.00000000       0.00000000 </v>
   <v>       0.08333333       0.08333333       0.00000000 </v>
   <v>       0.16666667       0.08333333       0.00000000 </v>
   <v>       0.25000000       0.08333333       0.00000000 </v>
   <v>       0.33333333       0.08333333       0.00000000 </v>
   <v>       0.41666667       0.08333333       0.00000000 </v>
   <v>       0.50000000       0.08333333       0.00000000 </v>
   <v>      -0.41666667       0.08333333       0.00000000 </v>
   <v>      -0.33333333       0.08333333       0.00000000 </v>
   <v>      -0.25000000       0.08333333       0.00000000 </v>
   <v>      -0.16666667       0.08333333       0.00000000 </v>
   <v>      -0.08333333       0.08333333       0.00000000 </v>
   <v>       0.16666667       0.16666667       0.00000000 </v>
   <v>       0.25000000       0.16666667       0.00000000 </v>
   <v>       0.33333333       0.16666667       0.00000000 </v>
   <v>       0.41666667       0.16666667       0.00000000 </v>
   <v>       0.50000000       0.16666667       0.00000000 </v>
   <v>      -0.41666667       0.16666667       0.00000000 </v>
   <v>      -0.33333333       0.16666667       0.00000000 </v>
   <v>      -0.25000000       0.16666667       0.00000000 </v>
   <v>      -0.16666667       0.16666667       0.00000000 </v>
   <v>       0.25000000       0.25000000       0.00000000 </v>
   <v>       0.33333333       0.25000000       0.00000000 </v>
   <v>       0.41666667       0.25000000       0.00000000 </v>
   <v>       0.50000000       0.25000000       0.00000000 </v>
   <v>      -0.41666667       0.25000000       0.00000000 </v>
   <v>      -0.33333333       0.25000000       0.00000000 </v>
   <v>      -0.25000000       0.25000000       0.00000000 </v>
   <v>       0.33333333       0.33333333       0.00000000 </v>
   <v>       0.41666667       0.33333333       0.00000000 </v>
   <v>       0.50000000       0.33333333       0.00000000 </v>
   <v>      -0.41666667       0.33333333       0.00000000 </v>
   <v>      -0.33333333       0.33333333       0.00000000 </v>
   <v>       0.41666667       0.41666667       0.00000000 </v>
   <v>       0.50000000       0.41666667       0.00000000 </v>
   <v>      -0.41666667       0.41666667       0.00000000 </v>
   <v>       0.50000000       0.50000000       0.00000000 </v>
   <v>       0.08333333       0.08333333       0.08333333 </v>
   <v>       0.16666667       0.08333333       0.08333333 </v>
   <v>       0.25000000       0.08333333       0.08333333 </v>
   <v>       0.33333333       0.08333333       0.08333333 </v>
   <v>       0.41666667       0.08333333       0.08333333 </v>
   <v>       0.50000000       0.08333333       0.08333333 </v>
   <v>      -0.41666667       0.08333333       0.08333333 </v>
   <v>      -0.33333333       0.08333333       0.08333333 </v>
   <v>      -0.25000000       0.08333333       0.08333333 </v>
   <v>      -0.16666667       0.08333333       0.08333333 </v>
   <v>      -0.08333333       0.08333333       0.08333333 </v>
   <v>       0.16666667       0.16666667       0.08333333 </v>
   <v>       0.25000000       0.16666667       0.08333333 </v>
   <v>       0.33333333       0.16666667       0.08333333 </v>
   <v>       0.41666667       0.16666667       0.08333333 </v>
   <v>       0.50000000       0.16666667       0.08333333 </v>
   <v>      -0.41666667       0.16666667       0.08333333 </v>
   <v>      -0.33333333       0.16666667       0.08333333 </v>
   <v>      -0.25000000       0.16666667       0.08333333 </v>
   <v>      -0.16666667       0.16666667       0.08333333 </v>
   <v>      -0.08333333       0.16666667       0.08333333 </v>
   <v>       0.25000000       0.25000000       0.08333333 </v>
   <v>       0.33333333       0.25000000       0.08333333 </v>
   <v>       0.41666667       0.25000000       0.08333333 </v>
   <v>       0.50000000       0.25000000       0.08333333 </v>
   <v>      -0.41666667       0.25000000       0.08333333 </v>
   <v>      -0.33333333       0.25000000       0.08333333 </v>
   <v>      -0.25000000       0.25000000       0.08333333 </v>
   <v>      -0.16666667       0.25000000       0.08333333 </v>
   <v>      -0.08333333       0.25000000       0.08333333 </v>
   <v>       0.33333333       0.33333333       0.08333333 </v>
   <v>       0.41666667       0.33333333       0.08333333 </v>
   <v>       0.50000000       0.33333333       0.08333333 </v>
   <v>      -0.41666667       0.33333333       0.08333333 </v>
   <v>      -0.33333333       0.33333333       0.08333333 </v>
   <v>      -0.25000000       0.33333333       0.08333333 </v>
   <v>      -0.16666667       0.33333333       0.08333333 </v>
   <v>      -0.08333333       0.33333333       0.08333333 </v>
   <v>       0.41666667       0.41666667       0.08333333 </v>
   <v>       0.50000000       0.41666667       0.08333333 </v>
   <v>      -0.41666667       0.41666667       0.08333333 </v>
   <v>      -0.33333333       0.41666667       0.08333333 </v>
   <v>      -0.25000000       0.41666667       0.08333333 </v>
   <v>      -0.16666667       0.41666667       0.08333333 </v>
   <v>      -0.08333333       0.41666667       0.08333333 </v>
   <v>       0.50000000       0.50000000       0.08333333 </v>
   <v>      -0.41666667       0.50000000       0.08333333 </v>
   <v>      -0.33333333       0.50000000       0.08333333 </v>
   <v>      -0.25000000       0.50000000       0.08333333 </v>
   <v>      -0.16666667       0.50000000       0.08333333 </v>
   <v>      -0.08333333       0.50000000       0.08333333 </v>
   <v>      -0.41666667      -0.41666667       0.08333333 </v>
   <v>      -0.33333333      -0.41666667       0.08333333 </v>
   <v>      -0.25000000      -0.41666667       0.08333333 </v>
   <v>      -0.16666667      -0.41666667       0.08333333 </v>
   <v>      -0.33333333      -0.33333333       0.08333333 </v>
   <v>      -0.25000000      -0.33333333       0.08333333 </v>
   <v>      -0.16666667      -0.33333333       0.08333333 </v>
   <v>      -0.25000000      -0.25000000       0.08333333 </v>
   <v>      -0.16666667      -0.25000000       0.08333333 </v>
   <v>      -0.16666667      -0.16666667       0.08333333 </v>
   <v>       0.16666667       0.16666667       0.16666667 </v>
   <v>       0.25000000       0.16666667       0.16666667 </v>
   <v>       0.33333333       0.16666667       0.16666667 </v>
   <v>       0.41666667       0.16666667       0.16666667 </v>
   <v>       0.50000000       0.16666667       0.16666667 </v>
   <v>      -0.41666667       0.16666667       0.16666667 </v>
   <v>      -0.33333333       0.16666667       0.16666667 </v>
   <v>      -0.25000000       0.16666667       0.16666667 </v>
   <v>      -0.16666667       0.16666667       0.16666667 </v>
   <v>       0.25000000       0.25000000       0.16666667 </v>
   <v>       0.33333333       0.25000000       0.16666667 </v>
   <v>       0.41666667       0.25000000       0.16666667 </v>
   <v>       0.50000000       0.25000000       0.16666667 </v>
   <v>      -0.41666667       0.25000000       0.16666667 </v>
   <v>      -0.33333333       0.25000000       0.16666667 </v>
   <v>      -0.25000000       0.25000000       0.16666667 </v>
   <v>      -0.16666667       0.25000000       0.16666667 </v>
   <v>       0.33333333       0.33333333       0.16666667 </v>
   <v>       0.41666667       0.33333333       0.16666667 </v>
   <v>       0.50000000       0.33333333       0.16666667 </v>
   <v>      -0.41666667       0.33333333       0.16666667 </v>
   <v>      -0.33333333       0.33333333       0.16666667 </v>
   <v>      -0.25000000       0.33333333       0.16666667 </v>
   <v>      -0.16666667       0.33333333       0.16666667 </v>
   <v>       0.41666667       0.41666667       0.16666667 </v>
   <v>       0.50000000       0.41666667       0.16666667 </v>
   <v>      -0.41666667       0.41666667       0.16666667 </v>
   <v>      -0.33333333       0.41666667       0.16666667 </v>
   <v>      -0.25000000       0.41666667       0.16666667 </v>
   <v>      -0.16666667       0.41666667       0.16666667 </v>
   <v>       0.50000000       0.50000000       0.16666667 </v>
   <v>      -0.41666667       0.50000000       0.16666667 </v>
   <v>      -0.33333333       0.50000000       0.16666667 </v>
   <v>      -0.25000000       0.50000000       0.16666667 </v>
   <v>      -0.16666667       0.50000000       0.16666667 </v>
   <v>      -0.41666667      -0.41666667       0.16666667 </v>
   <v>      -0.33333333      -0.41666667       0.16666667 </v>
   <v>      -0.25000000      -0.41666667       0.16666667 </v>
   <v>      -0.33333333      -0.33333333       0.16666667 </v>
   <v>      -0.25000000      -0.33333333       0.16666667 </v>
   <v>      -0.25000000      -0.25000000       0.16666667 </v>
   <v>       0.25000000       0.25000000       0.25000000 </v>
   <v>       0.33333333       0.25000000       0.25000000 </v>
   <v>       0.41666667       0.25000000       0.25000000 </v>
   <v>       0.50000000       0.25000000       0.25000000 </v>
   <v>      -0.41666667       0.25000000       0.25000000 </v>
   <v>      -0.33333333       0.25000000       0.25000000 </v>
   <v>      -0.25000000       0.25000000       0.25000000 </v>
   <v>       0.33333333       0.33333333       0.25000000 </v>
   <v>       0.41666667       0.33333333       0.25000000 </v>
   <v>       0.50000000       0.33333333       0.25000000 </v>
   <v>      -0.41666667       0.33333333       0.25000000 </v>
   <v>      -0.33333333       0.33333333       0.25000000 </v>
   <v>      -0.25000000       0.33333333       0.25000000 </v>
   <v>       0.41666667       0.41666667       0.25000000 </v>
   <v>       0.50000000       0.41666667       0.25000000 </v>
   <v>      -0.41666667       0.41666667       0.25000000 </v>
   <v>      -0.33333333       0.41666667       0.25000000 </v>
   <v>      -0.25000000       0.41666667       0.25000000 </v>
   <v>       0.50000000       0.50000000       0.25000000 </v>
   <v>      -0.41666667       0.50000000       0.25000000 </v>
   <v>      -0.33333333       0.50000000       0.25000000 </v>
   <v>      -0.25000000       0.50000000       0.25000000 </v>
   <v>      -0.41666667      -0.41666667       0.25000000 </v>
   <v>      -0.33333333      -0.41666667       0.25000000 </v>
   <v>      -0.33333333      -0.33333333       0.25000000 </v>
   <v>       0.33333333       0.33333333       0.33333333 </v>
   <v>       0.41666667       0.33333333       0.33333333 </v>
   <v>       0.50000000       0.33333333       0.33333333 </v>
   <v>      -0.41666667       0.33333333       0.33333333 </v>
   <v>      -0.33333333       0.33333333       0.33333333 </v>
   <v>       0.41666667       0.41666667       0.33333333 </v>
   <v>       0.50000000       0.41666667       0.33333333 </v>
   <v>      -0.41666667       0.41666667       0.33333333 </v>
   <v>      -0.33333333       0.41666667       0.33333333 </v>
   <v>       0.50000000       0.50000000       0.33333333 </v>
   <v>      -0.41666667       0.50000000       0.33333333 </v>
   <v>      -0.33333333       0.50000000       0.33333333 </v>
   <v>      -0.41666667      -0.41666667       0.33333333 </v>
   <v>       0.41666667       0.41666667       0.41666667 </v>
   <v>       0.50000000       0.41666667       0.41666667 </v>
   <v>      -0.41666667       0.41666667       0.41666667 </v>
   <v>       0.50000000       0.50000000       0.41666667 </v>
   <v>      -0.41666667       0.50000000       0.41666667 </v>
   <v>       0.50000000       0.50000000       0.50000000 </v>
  </varray>
  <varray name="weights" >
   <v>       0.00057870 </v>
   <v>       0.00347222 </v>
   <v>       0.00347222 </v>
   <v>       0.00347222 </v>
   <v>       0.00347222 </v>
   <v>       0.00347222 </v>
   <v>       0.00173611 </v>
   <v>       0.00347222 </v>
   <v>       0.00694444 </v>
   <v>       0.00694444 </v>
   <v>       0.00694444 </v>
   <v>       0.00694444 </v>
   <v>       0.00694444 </v>
   <v>       0.00694444 </v>
   <v>       0.00694444 </v>
   <v>       0.00694444 </v>
   <v>       0.00694444 </v>
   <v>       0.00347222 </v>
   <v>       0.00347222 </v>
   <v>       0.00694444 </v>
   <v>       0.00694444 </v>
   <v>       0.00694444 </v>
   <v>       0.00694444 </v>
   <v>       0.00694444 </v>
   <v>       0.00694444 </v>
   <v>       0.00694444 </v>
   <v>       0.00347222 </v>
   <v>       0.00347222 </v>
   <v>       0.00694444 </v>
   <v>       0.00694444 </v>
   <v>       0.00694444 </v>
   <v>       0.00694444 </v>
   <v>       0.00694444 </v>
   <v>       0.00347222 </v>
   <v>       0.00347222 </v>
   <v>       0.00694444 </v>
   <v>       0.00694444 </v>
   <v>       0.00694444 </v>
   <v>       0.00347222 </v>
   <v>       0.00347222 </v>
   <v>       0.00694444 </v>
   <v>       0.00347222 </v>
   <v>       0.00173611 </v>
   <v>       0.00115741 </v>
   <v>       0.00347222 </v>
   <v>       0.00347222 </v>
   <v>       0.00347222 </v>
   <v>       0.00347222 </v>
   <v>       0.00347222 </v>
   <v>       0.00347222 </v>
   <v>       0.00347222 </v>
   <v>       0.00347222 </v>
   <v>       0.00347222 </v>
   <v>       0.00347222 </v>
   <v>       0.00347222 </v>
   <v>       0.00694444 </v>
   <v>       0.00694444 </v>
   <v>       0.00694444 </v>
   <v>       0.00694444 </v>
   <v>       0.00694444 </v>
   <v>       0.00694444 </v>
   <v>       0.00694444 </v>
   <v>       0.00694444 </v>
   <v>       0.00694444 </v>
   <v>       0.00347222 </v>
   <v>       0.00694444 </v>
   <v>       0.00694444 </v>
   <v>       0.00694444 </v>
   <v>       0.00694444 </v>
   <v>       0.00694444 </v>
   <v>       0.00694444 </v>
   <v>       0.00694444 </v>
   <v>       0.00694444 </v>
   <v>       0.00347222 </v>
   <v>       0.00694444 </v>
   <v>       0.00694444 </v>
   <v>       0.00694444 </v>
   <v>       0.00694444 </v>
   <v>       0.00694444 </v>
   <v>       0.00694444 </v>
   <v>       0.00694444 </v>
   <v>       0.00347222 </v>
   <v>       0.00694444 </v>
   <v>       0.00694444 </v>
   <v>       0.00694444 </v>
   <v>       0.00694444 </v>
   <v>       0.00694444 </v>
   <v>       0.00694444 </v>
   <v>       0.00347222 </v>
   <v>       0.00694444 </v>
   <v>       0.00694444 </v>
   <v>       0.00694444 </v>
   <v>       0.00694444 </v>
   <v>       0.00347222 </v>
   <v>       0.00347222 </v>
   <v>       0.00694444 </v>
   <v>       0.00694444 </v>
   <v>       0.00694444 </v>
   <v>       0.00347222 </v>
   <v>       0.00694444 </v>
   <v>       0.00694444 </v>
   <v>       0.00347222 </v>
   <v>       0.00694444 </v>
   <v>       0.00347222 </v>
   <v>       0.00115741 </v>
   <v>       0.00347222 </v>
   <v>       0.00347222 </v>
   <v>       0.00347222 </v>
   <v>       0.00347222 </v>
   <v>       0.00347222 </v>
   <v>       0.00347222 </v>
   <v>       0.00347222 </v>
   <v>       0.00347222 </v>
   <v>       0.00347222 </v>
   <v>       0.00694444 </v>
   <v>       0.00694444 </v>
   <v>       0.00694444 </v>
   <v>       0.00694444 </v>
   <v>       0.00694444 </v>
   <v>       0.00694444 </v>
   <v>       0.00694444 </v>
   <v>       0.00347222 </v>
   <v>       0.00694444 </v>
   <v>       0.00694444 </v>
   <v>       0.00694444 </v>
   <v>       0.00694444 </v>
   <v>       0.00694444 </v>
   <v>       0.00694444 </v>
   <v>       0.00347222 </v>
   <v>       0.00694444 </v>
   <v>       0.00694444 </v>
   <v>       0.00694444 </v>
   <v>       0.00694444 </v>
   <v>       0.00694444 </v>
   <v>       0.00347222 </v>
   <v>       0.00694444 </v>
   <v>       0.00694444 </v>
   <v>       0.00694444 </v>
   <v>       0.00347222 </v>
   <v>       0.00347222 </v>
   <v>       0.00694444 </v>
   <v>       0.00694444 </v>
   <v>       0.00347222 </v>
   <v>       0.00694444 </v>
   <v>       0.00347222 </v>
   <v>       0.00115741 </v>
   <v>       0.00347222 </v>
   <v>       0.00347222 </v>
   <v>       0.00347222 </v>
   <v>       0.00347222 </v>
   <v>       0.00347222 </v>
   <v>       0.00347222 </v>
   <v>       0.00347222 </v>
   <v>       0.00694444 </v>
   <v>       0.00694444 </v>
   <v>       0.00694444 </v>
   <v>       0.00694444 </v>
   <v>       0.00694444 </v>
   <v>       0.00347222 </v>
   <v>       0.00694444 </v>
   <v>       0.00694444 </v>
   <v>       0.00694444 </v>
   <v>       0.00694444 </v>
   <v>       0.00347222 </v>
   <v>       0.00694444 </v>
   <v>       0.00694444 </v>
   <v>       0.00347222 </v>
   <v>       0.00347222 </v>
   <v>       0.00694444 </v>
   <v>       0.00347222 </v>
   <v>       0.00115741 </v>
   <v>       0.00347222 </v>
   <v>       0.00347222 </v>
   <v>       0.00347222 </v>
   <v>       0.00347222 </v>
   <v>       0.00347222 </v>
   <v>       0.00694444 </v>
   <v>       0.00694444 </v>
   <v>       0.00694444 </v>
   <v>       0.00347222 </v>
   <v>       0.00694444 </v>
   <v>       0.00347222 </v>
   <v>       0.00347222 </v>
   <v>       0.00115741 </v>
   <v>       0.00347222 </v>
   <v>       0.00347222 </v>
   <v>       0.00347222 </v>
   <v>       0.00347222 </v>
   <v>       0.00057870 </v>
  </varray>
 </kpoints>
 <parameters>
  <separator name="general" >
   <i type="string" name="SYSTEM">unknown system</i>
   <i type="logical" name="LCOMPAT"> F  </i>
  </separator>
  <separator name="electronic" >
   <i type="string" name="PREC">accura</i>
   <i name="ENMAX">    520.00000000</i>
   <i name="ENAUG">    395.51100000</i>
   <i name="EDIFF">      0.00000001</i>
   <i type="int" name="IALGO">    38</i>
   <i type="int" name="IWAVPR">    11</i>
   <i type="int" name="NBANDS">    16</i>
   <i name="NELECT">     20.00000000</i>
   <i type="int" name="TURBO">     0</i>
   <i type="int" name="IRESTART">     0</i>
   <i type="int" name="NREBOOT">     0</i>
   <i type="int" name="NMIN">     0</i>
   <i name="EREF">      0.00000000</i>
   <separator name="electronic smearing" >
    <i type="int" name="ISMEAR">     0</i>
    <i name="SIGMA">      0.01000000</i>
    <i name="KSPACING">      0.50000000</i>
    <i type="logical" name="KGAMMA"> T  </i>
   </separator>
   <separator name="electronic projectors" >
    <i type="logical" name="LREAL"> F  </i>
    <v name="ROPT">      0.00000000      0.00000000</v>
    <i type="int" name="LMAXPAW">  -100</i>
    <i type="int" name="LMAXMIX">     2</i>
    <i type="logical" name="NLSPLINE"> F  </i>
   </separator>
   <separator name="electronic startup" >
    <i type="int" name="ISTART">     0</i>
    <i type="int" name="ICHARG">     2</i>
    <i type="int" name="INIWAV">     1</i>
   </separator>
   <separator name="electronic spin" >
    <i type="int" name="ISPIN">     1</i>
    <i type="logical" name="LNONCOLLINEAR"> F  </i>
    <v name="MAGMOM">      1.00000000      1.00000000</v>
    <i name="NUPDOWN">     -1.00000000</i>
    <i type="logical" name="LSORBIT"> F  </i>
    <v name="SAXIS">      0.00000000      0.00000000      1.00000000</v>
    <i type="logical" name="LSPIRAL"> F  </i>
    <v name="QSPIRAL">      0.00000000      0.00000000      0.00000000</v>
    <i type="logical" name="LZEROZ"> F  </i>
   </separator>
   <separator name="electronic exchange-correlation" >
    <i type="logical" name="LASPH"> F  </i>
    <i type="logical" name="LMETAGGA"> F  </i>
   </separator>
   <separator name="electronic convergence" >
    <i type="int" name="NELM">   100</i>
    <i type="int" name="NELMDL">    -5</i>
    <i type="int" name="NELMIN">     2</i>
    <i name="ENINI">    520.00000000</i>
    <separator name="electronic convergence detail" >
     <i type="logical" name="LDIAG"> T  </i>
     <i type="logical" name="LSUBROT"> F  </i>
     <i name="WEIMIN">      0.00100000</i>
     <i name="EBREAK">      0.00000000</i>
     <i name="DEPER">      0.30000000</i>
     <i type="int" name="NRMM">     4</i>
     <i name="TIME">      0.40000000</i>
    </separator>
   </separator>
   <separator name="electronic mixer" >
    <i name="AMIX">      0.40000000</i>
    <i name="BMIX">      1.00000000</i>
    <i name="AMIN">      0.10000000</i>
    <i name="AMIX_MAG">      1.60000000</i>
    <i name="BMIX_MAG">      1.00000000</i>
    <separator name="electronic mixer details" >
     <i type="int" name="IMIX">     4</i>
     <i type="logical" name="MIXFIRST"> F  </i>
     <i type="int" name="MAXMIX">   -45</i>
     <i name="WC">    100.00000000</i>
     <i type="int" name="INIMIX">     1</i>
     <i type="int" name="MIXPRE">     1</i>
     <i type="int" name="MREMOVE">     5</i>
    </separator>
   </separator>
   <separator name="electronic dipolcorrection" >
    <i type="logical" name="LDIPOL"> F  </i>
    <i type="logical" name="LMONO"> F  </i>
    <i type="int" name="IDIPOL">     0</i>
    <i name="EPSILON">      1.00000000</i>
    <v name="DIPOL">   -100.00000000   -100.00000000   -100.00000000</v>
    <i name="EFIELD">      0.00000000</i>
   </separator>
  </separator>
  <separator name="grids" >
   <i type="int" name="NGX">    30</i>
   <i type="int" name="NGY">    30</i>
   <i type="int" name="NGZ">    30</i>
   <i type="int" name="NGXF">    60</i>
   <i type="int" name="NGYF">    60</i>
   <i type="int" name="NGZF">    60</i>
   <i type="logical" name="ADDGRID"> F  </i>
  </separator>
  <separator name="ionic" >
   <i type="int" name="NSW">     1</i>
   <i type="int" name="IBRION">     8</i>
   <i type="int" name="MDALGO">     0</i>
   <i type="int" name="ISIF">     2</i>
   <i name="PSTRESS">      0.00000000</i>
   <i name="EDIFFG">      0.00000010</i>
   <i type="int" name="NFREE">     0</i>
   <i name="POTIM">      0.50000000</i>
   <i name="SMASS">     -3.00000000</i>
   <i name="SCALEE">      1.00000000</i>
  </separator>
  <separator name="ionic md" >
   <i name="TEBEG">      0.00010000</i>
   <i name="TEEND">      0.00010000</i>
   <i type="int" name="NBLOCK">     1</i>
   <i type="int" name="KBLOCK">     1</i>
   <i type="int" name="NPACO">   256</i>
   <i name="APACO">     16.00000000</i>
  </separator>
  <separator name="symmetry" >
   <i type="int" name="ISYM">     2</i>
   <i name="SYMPREC">      0.00000001</i>
  </separator>
  <separator name="dos" >
   <i type="int" name="LORBIT">     0</i>
   <v name="RWIGS">     -1.00000000     -1.00000000</v>
   <i type="int" name="NEDOS">   301</i>
   <i name="EMIN">     10.00000000</i>
   <i name="EMAX">    -10.00000000</i>
   <i name="EFERMI">      0.00000000</i>
  </separator>
  <separator name="writing" >
   <i type="int" name="NWRITE">     2</i>
   <i type="logical" name="LWAVE"> F  </i>
   <i type="logical" name="LDOWNSAMPLE"> F  </i>
   <i type="logical" name="LCHARG"> T  </i>
   <i type="logical" name="LPARD"> F  </i>
   <i type="logical" name="LVTOT"> F  </i>
   <i type="logical" name="LVHAR"> F  </i>
   <i type="logical" name="LELF"> F  </i>
   <i type="logical" name="LOPTICS"> F  </i>
   <v name="STM">      0.00000000      0.00000000      0.00000000      0.00000000      0.00000000      0.00000000      0.00000000</v>
  </separator>
  <separator name="performance" >
   <i type="int" name="NPAR">     8</i>
   <i type="int" name="NSIM">     4</i>
   <i type="int" name="NBLK">    -1</i>
   <i type="logical" name="LPLANE"> T  </i>
   <i type="logical" name="LSCALAPACK"> T  </i>
   <i type="logical" name="LSCAAWARE"> F  </i>
   <i type="logical" name="LSCALU"> F  </i>
   <i type="logical" name="LASYNC"> F  </i>
   <i type="logical" name="LORBITALREAL"> F  </i>
  </separator>
  <separator name="miscellaneous" >
   <i type="int" name="IDIOT">     3</i>
   <i type="int" name="ISPECIAL">     0</i>
   <i type="logical" name="LMUSIC"> F  </i>
   <v name="POMASS">    204.38000000     35.45300000</v>
   <v name="DARWINR">      0.00000000      0.00000000</v>
   <v name="DARWINV">      1.00000000      1.00000000</v>
   <i type="logical" name="LCORR"> T  </i>
  </separator>
  <i type="logical" name="GGA_COMPAT"> T  </i>
  <i type="logical" name="LBERRY"> F  </i>
  <i type="int" name="ICORELEVEL">     0</i>
  <i type="logical" name="LDAU"> F  </i>
  <i type="int" name="I_CONSTRAINED_M">     0</i>
  <separator name="electronic exchange-correlation" >
   <i type="string" name="GGA">--</i>
   <i type="int" name="VOSKOWN">     0</i>
   <i type="logical" name="LHFCALC"> F  </i>
   <i type="string" name="PRECFOCK"></i>
   <i type="logical" name="LSYMGRAD"> F  </i>
   <i type="logical" name="LHFONE"> F  </i>
   <i type="logical" name="LRHFCALC"> F  </i>
   <i type="logical" name="LTHOMAS"> F  </i>
   <i type="logical" name="LMODELHF"> F  </i>
   <i name="ENCUT4O">     -1.00000000</i>
   <i type="int" name="EXXOEP">     0</i>
   <i type="int" name="FOURORBIT">     0</i>
   <i name="AEXX">      0.00000000</i>
   <i name="HFALPHA">      0.00000000</i>
   <i name="MCALPHA">      0.00000000</i>
   <i name="ALDAX">      1.00000000</i>
   <i name="AGGAX">      1.00000000</i>
   <i name="ALDAC">      1.00000000</i>
   <i name="AGGAC">      1.00000000</i>
   <i type="int" name="NKREDX">     1</i>
   <i type="int" name="NKREDY">     1</i>
   <i type="int" name="NKREDZ">     1</i>
   <i type="logical" name="SHIFTRED"> F  </i>
   <i type="logical" name="ODDONLY"> F  </i>
   <i type="logical" name="EVENONLY"> F  </i>
   <i type="int" name="LMAXFOCK">     0</i>
   <i type="int" name="NMAXFOCKAE">     0</i>
   <i type="logical" name="LFOCKAEDFT"> F  </i>
   <i name="HFSCREEN">      0.00000000</i>
   <i name="HFSCREENC">      0.00000000</i>
   <i type="int" name="NBANDSGWLOW">     0</i>
  </separator>
  <separator name="vdW DFT" >
   <i type="logical" name="LUSE_VDW"> F  </i>
   <i name="Zab_VDW">     -0.84910000</i>
   <i name="PARAM1">      0.12340000</i>
   <i name="PARAM2">      1.00000000</i>
   <i name="PARAM3">      0.00000000</i>
  </separator>
  <separator name="model GW" >
   <i type="int" name="MODEL_GW">     0</i>
   <i name="MODEL_EPS0">     16.95333895</i>
   <i name="MODEL_ALPHA">      1.00000000</i>
  </separator>
  <separator name="linear response parameters" >
   <i type="logical" name="LEPSILON"> T  </i>
   <i type="logical" name="LRPA"> F  </i>
   <i type="logical" name="LNABLA"> F  </i>
   <i type="logical" name="LVEL"> F  </i>
   <i type="int" name="KINTER">     0</i>
   <i name="CSHIFT">      0.10000000</i>
   <i name="OMEGAMAX">     -1.00000000</i>
   <i name="DEG_THRESHOLD">      0.00200000</i>
   <i name="RTIME">     -0.10000000</i>
   <i name="WPLASMAI">      0.00000000</i>
   <v name="DFIELD">      0.00000000      0.00000000      0.00000000</v>
   <v name="WPLASMA">      0.00000000      0.00000000      0.00000000      0.00000000      0.00000000      0.00000000      0.00000000      0.00000000      0.00000000</v>
  </separator>
  <separator name="orbital magnetization" >
   <i type="logical" name="NUCIND"> F  </i>
   <v name="MAGPOS">      0.00000000      0.00000000      0.00000000</v>
   <i type="logical" name="LNICSALL"> T  </i>
   <i type="logical" name="ORBITALMAG"> F  </i>
   <i type="logical" name="LMAGBLOCH"> F  </i>
   <i type="logical" name="LCHIMAG"> F  </i>
   <i type="logical" name="LGAUGE"> T  </i>
   <i type="int" name="MAGATOM">     0</i>
   <v name="MAGDIPOL">      0.00000000      0.00000000      0.00000000</v>
   <v name="AVECCONST">      0.00000000      0.00000000      0.00000000</v>
  </separator>
  <separator name="response functions" >
   <i type="logical" name="LADDER"> F  </i>
   <i type="logical" name="LRPAFORCE"> F  </i>
   <i type="logical" name="LFXC"> F  </i>
   <i type="logical" name="LHARTREE"> T  </i>
   <i type="int" name="IBSE">     0</i>
   <v type="int" name="KPOINT">    -1     0     0     0</v>
   <i type="logical" name="LTCTE"> F  </i>
   <i type="logical" name="LTETE"> F  </i>
   <i type="logical" name="LTRIPLET"> F  </i>
   <i type="logical" name="LFXCEPS"> F  </i>
   <i type="logical" name="LFXHEG"> F  </i>
   <i type="int" name="NATURALO">     2</i>
   <i type="logical" name="L2ORDER"> F  </i>
   <i type="logical" name="LMP2LT"> F  </i>
   <i type="logical" name="LUSEW"> F  </i>
   <i name="ENCUTGW">     -2.00000000</i>
   <i name="ENCUTGWSOFT">     -2.00000000</i>
   <i name="ENCUTLF">     -1.00000000</i>
   <i type="int" name="LMAXMP2">    -1</i>
   <i name="SCISSOR">      0.00000000</i>
   <i type="int" name="NOMEGA">     0</i>
   <i type="int" name="NOMEGAR">     0</i>
   <i type="int" name="NBANDSGW">    -1</i>
   <i type="int" name="NBANDSO">    -1</i>
   <i type="int" name="NBANDSV">    -1</i>
   <i type="int" name="NELM">   100</i>
   <i type="int" name="NELMHF">     1</i>
   <i type="int" name="DIM">     3</i>
   <i type="int" name="ANTIRES">     0</i>
   <i name="OMEGAMAX">    -30.00000000</i>
   <i name="OMEGAMIN">    -30.00000000</i>
   <i name="OMEGATL">   -200.00000000</i>
   <i type="int" name="OMEGAGRID">   140</i>
   <i name="CSHIFT">     -0.10000000</i>
   <i type="logical" name="SELFENERGY"> F  </i>
   <i type="logical" name="LSPECTRAL"> F  </i>
   <i type="logical" name="LSPECTRALGW"> F  </i>
   <i type="logical" name="LSINGLES"> F  </i>
   <i type="logical" name="LFERMIGW"> F  </i>
   <i type="logical" name="ODDONLYGW"> F  </i>
   <i type="logical" name="EVENONLYGW"> F  </i>
   <i type="int" name="NKREDLFX">     1</i>
   <i type="int" name="NKREDLFY">     1</i>
   <i type="int" name="NKREDLFZ">     1</i>
   <i type="int" name="MAXMEM">  2800</i>
   <i type="int" name="TELESCOPE">     0</i>
   <i type="int" name="TAUPAR">     1</i>
   <i type="int" name="OMEGAPAR">    -1</i>
   <i name="LAMBDA">      1.00000000</i>
  </separator>
  <separator name="External order field" >
   <i name="OFIELD_KAPPA">      0.00000000</i>
   <v name="OFIELD_K">      0.00000000      0.00000000      0.00000000</v>
   <i name="OFIELD_Q6_NEAR">      0.00000000</i>
   <i name="OFIELD_Q6_FAR">      0.00000000</i>
   <i name="OFIELD_A">      0.00000000</i>
  </separator>
 </parameters>
 <atominfo>
  <atoms>       2 </atoms>
  <types>       2 </types>
  <array name="atoms" >
   <dimension dim="1">ion</dimension>
   <field type="string">element</field>
   <field type="int">atomtype</field>
   <set>
    <rc><c>Tl</c><c>   1</c></rc>
    <rc><c>Cl</c><c>   2</c></rc>
   </set>
  </array>
  <array name="atomtypes" >
   <dimension dim="1">type</dimension>
   <field type="int">atomspertype</field>
   <field type="string">element</field>
   <field>mass</field>
   <field>valence</field>
   <field type="string">pseudopotential</field>
   <set>
    <rc><c>   1</c><c>Tl</c><c>    204.38000000</c><c>     13.00000000</c><c>  PAW_PBE Tl_d 06Sep2000                </c></rc>
    <rc><c>   1</c><c>Cl</c><c>     35.45300000</c><c>      7.00000000</c><c>  PAW_PBE Cl 06Sep2000                  </c></rc>
   </set>
  </array>
 </atominfo>
 <structure name="initialpos" >
  <crystal>
   <varray name="basis" >
    <v>       3.83746709       0.00000000       0.00000000 </v>
    <v>       0.00000000       3.83746709       0.00000000 </v>
    <v>       0.00000000       0.00000000       3.83746709 </v>
   </varray>
   <i name="volume">     56.51112985 </i>
   <varray name="rec_basis" >
    <v>       0.26058855       0.00000000       0.00000000 </v>
    <v>       0.00000000       0.26058855       0.00000000 </v>
    <v>       0.00000000       0.00000000       0.26058855 </v>
   </varray>
  </crystal>
  <varray name="positions" >
   <v>       0.00000000       0.00000000       0.00000000 </v>
   <v>       0.50000004       0.50000004       0.50000004 </v>
  </varray>
 </structure>
 <calculation>
  <scstep>
   <time name="dav">    1.38    1.39</time>
   <time name="total">    1.41    1.43</time>
   <energy>
    <i name="alphaZ">     50.45179149 </i>
    <i name="ewald">  -1434.33092007 </i>
    <i name="hartreedc">   -411.08722282 </i>
    <i name="XCdc">     45.19894226 </i>
    <i name="pawpsdc">   1572.39284026 </i>
    <i name="pawaedc">  -1540.85494601 </i>
    <i name="eentropy">     -0.00003539 </i>
    <i name="bandstr">     16.51475938 </i>
    <i name="atom">   1801.52670801 </i>
    <i name="e_fr_energy">     99.81191712 </i>
    <i name="e_wo_entrp">     99.81195251 </i>
    <i name="e_0_energy">     99.81193481 </i>
   </energy>
  </scstep>
  <scstep>
   <time name="dav">    1.58    1.59</time>
   <time name="total">    1.58    1.59</time>
   <energy>
    <i name="e_fr_energy">     -2.80222725 </i>
    <i name="e_wo_entrp">     -2.80222725 </i>
    <i name="e_0_energy">     -2.80222725 </i>
   </energy>
  </scstep>
  <scstep>
   <time name="dav">    1.49    1.50</time>
   <time name="total">    1.49    1.50</time>
   <energy>
    <i name="e_fr_energy">     -6.39140214 </i>
    <i name="e_wo_entrp">     -6.39140214 </i>
    <i name="e_0_energy">     -6.39140214 </i>
   </energy>
  </scstep>
  <scstep>
   <time name="dav">    1.61    1.62</time>
   <time name="total">    1.61    1.62</time>
   <energy>
    <i name="e_fr_energy">     -6.41624382 </i>
    <i name="e_wo_entrp">     -6.41624382 </i>
    <i name="e_0_energy">     -6.41624382 </i>
   </energy>
  </scstep>
  <scstep>
   <time name="dav">    1.54    1.55</time>
   <time name="total">    1.68    1.69</time>
   <energy>
    <i name="e_fr_energy">     -6.41661717 </i>
    <i name="e_wo_entrp">     -6.41661717 </i>
    <i name="e_0_energy">     -6.41661717 </i>
   </energy>
  </scstep>
  <scstep>
   <time name="dav">    1.47    1.50</time>
   <time name="total">    1.63    1.66</time>
   <energy>
    <i name="e_fr_energy">     -6.03401707 </i>
    <i name="e_wo_entrp">     -6.03401707 </i>
    <i name="e_0_energy">     -6.03401707 </i>
   </energy>
  </scstep>
  <scstep>
   <time name="dav">    1.49    1.50</time>
   <time name="total">    1.65    1.66</time>
   <energy>
    <i name="e_fr_energy">     -6.00692957 </i>
    <i name="e_wo_entrp">     -6.00692957 </i>
    <i name="e_0_energy">     -6.00692957 </i>
   </energy>
  </scstep>
  <scstep>
   <time name="dav">    1.46    1.47</time>
   <time name="total">    1.62    1.63</time>
   <energy>
    <i name="e_fr_energy">     -6.00610381 </i>
    <i name="e_wo_entrp">     -6.00610381 </i>
    <i name="e_0_energy">     -6.00610381 </i>
   </energy>
  </scstep>
  <scstep>
   <time name="dav">    1.58    1.59</time>
   <time name="total">    1.74    1.75</time>
   <energy>
    <i name="e_fr_energy">     -6.00548377 </i>
    <i name="e_wo_entrp">     -6.00548377 </i>
    <i name="e_0_energy">     -6.00548377 </i>
   </energy>
  </scstep>
  <scstep>
   <time name="dav">    1.40    1.41</time>
   <time name="total">    1.56    1.57</time>
   <energy>
    <i name="e_fr_energy">     -6.00568037 </i>
    <i name="e_wo_entrp">     -6.00568037 </i>
    <i name="e_0_energy">     -6.00568037 </i>
   </energy>
  </scstep>
  <scstep>
   <time name="dav">    1.58    1.59</time>
   <time name="total">    1.74    1.75</time>
   <energy>
    <i name="e_fr_energy">     -6.00566873 </i>
    <i name="e_wo_entrp">     -6.00566873 </i>
    <i name="e_0_energy">     -6.00566873 </i>
   </energy>
  </scstep>
  <scstep>
   <time name="dav">    1.47    1.48</time>
   <time name="total">    1.63    1.64</time>
   <energy>
    <i name="e_fr_energy">     -6.00566887 </i>
    <i name="e_wo_entrp">     -6.00566887 </i>
    <i name="e_0_energy">     -6.00566887 </i>
   </energy>
  </scstep>
  <scstep>
   <time name="dav">    1.50    1.50</time>
   <time name="total">    1.66    1.66</time>
   <energy>
    <i name="e_fr_energy">     -6.00566897 </i>
    <i name="e_wo_entrp">     -6.00566897 </i>
    <i name="e_0_energy">     -6.00566897 </i>
   </energy>
  </scstep>
  <scstep>
   <time name="dav">    1.52    1.53</time>
   <time name="total">    1.68    1.69</time>
   <energy>
    <i name="e_fr_energy">     -6.00566886 </i>
    <i name="e_wo_entrp">     -6.00566886 </i>
    <i name="e_0_energy">     -6.00566886 </i>
   </energy>
  </scstep>
  <scstep>
   <time name="dav">    1.44    1.45</time>
   <time name="total">    1.59    1.61</time>
   <energy>
    <i name="e_fr_energy">     -6.00566887 </i>
    <i name="e_wo_entrp">     -6.00566887 </i>
    <i name="e_0_energy">     -6.00566887 </i>
   </energy>
  </scstep>
  <scstep>
   <time name="dav">    1.02    1.03</time>
   <time name="total">    1.04    1.05</time>
   <energy>
    <i name="alphaZ">     50.45179149 </i>
    <i name="ewald">  -1434.33092007 </i>
    <i name="hartreedc">   -412.17941669 </i>
    <i name="XCdc">     45.59517931 </i>
    <i name="pawpsdc">   1697.88222824 </i>
    <i name="pawaedc">  -1665.98553257 </i>
    <i name="eentropy">     -0.00000000 </i>
    <i name="bandstr">    -88.96570660 </i>
    <i name="atom">   1801.52670801 </i>
    <i name="e_fr_energy">     -6.00566888 </i>
    <i name="e_wo_entrp">     -6.00566888 </i>
    <i name="e_0_energy">     -6.00566888 </i>
   </energy>
  </scstep>
  <structure>
   <crystal>
    <varray name="basis" >
     <v>       3.83746709       0.00000000       0.00000000 </v>
     <v>       0.00000000       3.83746709       0.00000000 </v>
     <v>       0.00000000       0.00000000       3.83746709 </v>
    </varray>
    <i name="volume">     56.51112985 </i>
    <varray name="rec_basis" >
     <v>       0.26058855       0.00000000       0.00000000 </v>
     <v>       0.00000000       0.26058855       0.00000000 </v>
     <v>       0.00000000       0.00000000       0.26058855 </v>
    </varray>
   </crystal>
   <varray name="positions" >
    <v>       0.00000000       0.00000000       0.00000000 </v>
    <v>       0.50000004       0.50000004       0.50000004 </v>
   </varray>
  </structure>
  <varray name="forces" >
   <v>       0.00000005       0.00000005       0.00000005 </v>
   <v>      -0.00000005      -0.00000005      -0.00000005 </v>
  </varray>
  <varray name="stress" >
   <v>      11.31287217      -0.00000017      -0.00000017 </v>
   <v>      -0.00000017      11.31287217      -0.00000017 </v>
   <v>      -0.00000017      -0.00000017      11.31287217 </v>
  </varray>
  <energy>
   <i name="e_fr_energy">     -6.00566888 </i>
   <i name="e_wo_entrp">     -6.00566888 </i>
   <i name="e_0_energy">     -0.00000000 </i>
  </energy>
  <scstep>
   <time name="total">    1.54    1.54</time>
   <energy>
    <i name="e_fr_energy">     -0.76375273 </i>
    <i name="e_wo_entrp">     -0.76375273 </i>
    <i name="e_0_energy">     -0.76375273 </i>
   </energy>
  </scstep>
  <scstep>
   <time name="total">    1.49    1.49</time>
   <energy>
    <i name="e_fr_energy">     -0.78708954 </i>
    <i name="e_wo_entrp">     -0.78708954 </i>
    <i name="e_0_energy">     -0.78708954 </i>
   </energy>
  </scstep>
  <scstep>
   <time name="total">    1.49    1.49</time>
   <energy>
    <i name="e_fr_energy">     -0.78719069 </i>
    <i name="e_wo_entrp">     -0.78719069 </i>
    <i name="e_0_energy">     -0.78719069 </i>
   </energy>
  </scstep>
  <scstep>
   <time name="total">    1.50    1.50</time>
   <energy>
    <i name="e_fr_energy">     -0.78718820 </i>
    <i name="e_wo_entrp">     -0.78718820 </i>
    <i name="e_0_energy">     -0.78718820 </i>
   </energy>
  </scstep>
  <scstep>
   <time name="total">    1.40    1.40</time>
   <energy>
    <i name="e_fr_energy">     -0.78718797 </i>
    <i name="e_wo_entrp">     -0.78718797 </i>
    <i name="e_0_energy">     -0.78718797 </i>
   </energy>
  </scstep>
  <scstep>
   <time name="total">    1.12    1.12</time>
   <energy>
    <i name="e_fr_energy">     -0.78718796 </i>
    <i name="e_wo_entrp">     -0.78718796 </i>
    <i name="e_0_energy">     -0.78718796 </i>
   </energy>
  </scstep>
  <scstep>
   <time name="total">    1.08    1.08</time>
   <energy>
    <i name="e_fr_energy">     -0.78718796 </i>
    <i name="e_wo_entrp">     -0.78718796 </i>
    <i name="e_0_energy">     -0.78718796 </i>
   </energy>
  </scstep>
  <scstep>
   <time name="total">    1.52    1.52</time>
   <energy>
    <i name="e_fr_energy">     -0.72777797 </i>
    <i name="e_wo_entrp">     -0.72777797 </i>
    <i name="e_0_energy">     -0.72777797 </i>
   </energy>
  </scstep>
  <scstep>
   <time name="total">    1.49    1.49</time>
   <energy>
    <i name="e_fr_energy">     -0.75451008 </i>
    <i name="e_wo_entrp">     -0.75451008 </i>
    <i name="e_0_energy">     -0.75451008 </i>
   </energy>
  </scstep>
  <scstep>
   <time name="total">    1.49    1.49</time>
   <energy>
    <i name="e_fr_energy">     -0.75459190 </i>
    <i name="e_wo_entrp">     -0.75459190 </i>
    <i name="e_0_energy">     -0.75459190 </i>
   </energy>
  </scstep>
  <scstep>
   <time name="total">    1.50    1.50</time>
   <energy>
    <i name="e_fr_energy">     -0.75459031 </i>
    <i name="e_wo_entrp">     -0.75459031 </i>
    <i name="e_0_energy">     -0.75459031 </i>
   </energy>
  </scstep>
  <scstep>
   <time name="total">    1.41    1.41</time>
   <energy>
    <i name="e_fr_energy">     -0.75459016 </i>
    <i name="e_wo_entrp">     -0.75459016 </i>
    <i name="e_0_energy">     -0.75459016 </i>
   </energy>
  </scstep>
  <scstep>
   <time name="total">    1.09    1.09</time>
   <energy>
    <i name="e_fr_energy">     -0.75459015 </i>
    <i name="e_wo_entrp">     -0.75459015 </i>
    <i name="e_0_energy">     -0.75459015 </i>
   </energy>
  </scstep>
  <scstep>
   <time name="total">    1.52    1.52</time>
   <energy>
    <i name="e_fr_energy">     -0.68091965 </i>
    <i name="e_wo_entrp">     -0.68091965 </i>
    <i name="e_0_energy">     -0.68091965 </i>
   </energy>
  </scstep>
  <scstep>
   <time name="total">    1.50    1.50</time>
   <energy>
    <i name="e_fr_energy">     -0.70889191 </i>
    <i name="e_wo_entrp">     -0.70889191 </i>
    <i name="e_0_energy">     -0.70889191 </i>
   </energy>
  </scstep>
  <scstep>
   <time name="total">    1.50    1.50</time>
   <energy>
    <i name="e_fr_energy">     -0.70896249 </i>
    <i name="e_wo_entrp">     -0.70896249 </i>
    <i name="e_0_energy">     -0.70896249 </i>
   </energy>
  </scstep>
  <scstep>
   <time name="total">    1.50    1.50</time>
   <energy>
    <i name="e_fr_energy">     -0.70896269 </i>
    <i name="e_wo_entrp">     -0.70896269 </i>
    <i name="e_0_energy">     -0.70896269 </i>
   </energy>
  </scstep>
  <scstep>
   <time name="total">    1.42    1.42</time>
   <energy>
    <i name="e_fr_energy">     -0.70896269 </i>
    <i name="e_wo_entrp">     -0.70896269 </i>
    <i name="e_0_energy">     -0.70896269 </i>
   </energy>
  </scstep>
  <varray name="epsilon_rpa" >
   <v>       5.80469832      -0.00000020      -0.00000020 </v>
   <v>      -0.00000020       5.80469832      -0.00000020 </v>
   <v>      -0.00000020      -0.00000020       5.80469832 </v>
  </varray>
  <kpoints>
   <generation param="Gamma">
    <v type="int" name="divisions">      12       12       12 </v>
    <v name="usershift">      0.00000000       0.00000000       0.00000000 </v>
    <v name="genvec1">      0.08333333       0.00000000       0.00000000 </v>
    <v name="genvec2">      0.00000000       0.08333333       0.00000000 </v>
    <v name="genvec3">      0.00000000       0.00000000       0.08333333 </v>
    <v name="shift">      0.00000000       0.00000000       0.00000000 </v>
   </generation>
   <varray name="kpointlist" >
    <v>       0.00000000       0.00000000       0.00000000 </v>
    <v>       0.08333333       0.00000000       0.00000000 </v>
    <v>       0.16666667       0.00000000       0.00000000 </v>
    <v>       0.25000000       0.00000000       0.00000000 </v>
    <v>       0.33333333       0.00000000       0.00000000 </v>
    <v>       0.41666667       0.00000000       0.00000000 </v>
    <v>       0.50000000       0.00000000       0.00000000 </v>
    <v>       0.00000000       0.08333333       0.00000000 </v>
    <v>       0.08333333       0.08333333       0.00000000 </v>
    <v>       0.16666667       0.08333333       0.00000000 </v>
    <v>       0.25000000       0.08333333       0.00000000 </v>
    <v>       0.33333333       0.08333333       0.00000000 </v>
    <v>       0.41666667       0.08333333       0.00000000 </v>
    <v>       0.50000000       0.08333333       0.00000000 </v>
    <v>      -0.41666667       0.08333333       0.00000000 </v>
    <v>      -0.33333333       0.08333333       0.00000000 </v>
    <v>      -0.25000000       0.08333333       0.00000000 </v>
    <v>      -0.16666667       0.08333333       0.00000000 </v>
    <v>      -0.08333333       0.08333333       0.00000000 </v>
    <v>       0.00000000       0.16666667       0.00000000 </v>
    <v>       0.08333333       0.16666667       0.00000000 </v>
    <v>       0.16666667       0.16666667       0.00000000 </v>
    <v>       0.25000000       0.16666667       0.00000000 </v>
    <v>       0.33333333       0.16666667       0.00000000 </v>
    <v>       0.41666667       0.16666667       0.00000000 </v>
    <v>       0.50000000       0.16666667       0.00000000 </v>
    <v>      -0.41666667       0.16666667       0.00000000 </v>
    <v>      -0.33333333       0.16666667       0.00000000 </v>
    <v>      -0.25000000       0.16666667       0.00000000 </v>
    <v>      -0.16666667       0.16666667       0.00000000 </v>
    <v>      -0.08333333       0.16666667       0.00000000 </v>
    <v>       0.00000000       0.25000000       0.00000000 </v>
    <v>       0.08333333       0.25000000       0.00000000 </v>
    <v>       0.16666667       0.25000000       0.00000000 </v>
    <v>       0.25000000       0.25000000       0.00000000 </v>
    <v>       0.33333333       0.25000000       0.00000000 </v>
    <v>       0.41666667       0.25000000       0.00000000 </v>
    <v>       0.50000000       0.25000000       0.00000000 </v>
    <v>      -0.41666667       0.25000000       0.00000000 </v>
    <v>      -0.33333333       0.25000000       0.00000000 </v>
    <v>      -0.25000000       0.25000000       0.00000000 </v>
    <v>      -0.16666667       0.25000000       0.00000000 </v>
    <v>      -0.08333333       0.25000000       0.00000000 </v>
    <v>       0.00000000       0.33333333       0.00000000 </v>
    <v>       0.08333333       0.33333333       0.00000000 </v>
    <v>       0.16666667       0.33333333       0.00000000 </v>
    <v>       0.25000000       0.33333333       0.00000000 </v>
    <v>       0.33333333       0.33333333       0.00000000 </v>
    <v>       0.41666667       0.33333333       0.00000000 </v>
    <v>       0.50000000       0.33333333       0.00000000 </v>
    <v>      -0.41666667       0.33333333       0.00000000 </v>
    <v>      -0.33333333       0.33333333       0.00000000 </v>
    <v>      -0.25000000       0.33333333       0.00000000 </v>
    <v>      -0.16666667       0.33333333       0.00000000 </v>
    <v>      -0.08333333       0.33333333       0.00000000 </v>
    <v>       0.00000000       0.41666667       0.00000000 </v>
    <v>       0.08333333       0.41666667       0.00000000 </v>
    <v>       0.16666667       0.41666667       0.00000000 </v>
    <v>       0.25000000       0.41666667       0.00000000 </v>
    <v>       0.33333333       0.41666667       0.00000000 </v>
    <v>       0.41666667       0.41666667       0.00000000 </v>
    <v>       0.50000000       0.41666667       0.00000000 </v>
    <v>      -0.41666667       0.41666667       0.00000000 </v>
    <v>      -0.33333333       0.41666667       0.00000000 </v>
    <v>      -0.25000000       0.41666667       0.00000000 </v>
    <v>      -0.16666667       0.41666667       0.00000000 </v>
    <v>      -0.08333333       0.41666667       0.00000000 </v>
    <v>       0.00000000       0.50000000       0.00000000 </v>
    <v>       0.08333333       0.50000000       0.00000000 </v>
    <v>       0.16666667       0.50000000       0.00000000 </v>
    <v>       0.25000000       0.50000000       0.00000000 </v>
    <v>       0.33333333       0.50000000       0.00000000 </v>
    <v>       0.41666667       0.50000000       0.00000000 </v>
    <v>       0.50000000       0.50000000       0.00000000 </v>
    <v>       0.00000000       0.08333333       0.08333333 </v>
    <v>       0.08333333       0.08333333       0.08333333 </v>
    <v>       0.16666667       0.08333333       0.08333333 </v>
    <v>       0.25000000       0.08333333       0.08333333 </v>
    <v>       0.33333333       0.08333333       0.08333333 </v>
    <v>       0.41666667       0.08333333       0.08333333 </v>
    <v>       0.50000000       0.08333333       0.08333333 </v>
    <v>      -0.41666667       0.08333333       0.08333333 </v>
    <v>      -0.33333333       0.08333333       0.08333333 </v>
    <v>      -0.25000000       0.08333333       0.08333333 </v>
    <v>      -0.16666667       0.08333333       0.08333333 </v>
    <v>      -0.08333333       0.08333333       0.08333333 </v>
    <v>       0.00000000       0.16666667       0.08333333 </v>
    <v>       0.08333333       0.16666667       0.08333333 </v>
    <v>       0.16666667       0.16666667       0.08333333 </v>
    <v>       0.25000000       0.16666667       0.08333333 </v>
    <v>       0.33333333       0.16666667       0.08333333 </v>
    <v>       0.41666667       0.16666667       0.08333333 </v>
    <v>       0.50000000       0.16666667       0.08333333 </v>
    <v>      -0.41666667       0.16666667       0.08333333 </v>
    <v>      -0.33333333       0.16666667       0.08333333 </v>
    <v>      -0.25000000       0.16666667       0.08333333 </v>
    <v>      -0.16666667       0.16666667       0.08333333 </v>
    <v>      -0.08333333       0.16666667       0.08333333 </v>
    <v>       0.00000000       0.25000000       0.08333333 </v>
    <v>       0.08333333       0.25000000       0.08333333 </v>
    <v>       0.16666667       0.25000000       0.08333333 </v>
    <v>       0.25000000       0.25000000       0.08333333 </v>
    <v>       0.33333333       0.25000000       0.08333333 </v>
    <v>       0.41666667       0.25000000       0.08333333 </v>
    <v>       0.50000000       0.25000000       0.08333333 </v>
    <v>      -0.41666667       0.25000000       0.08333333 </v>
    <v>      -0.33333333       0.25000000       0.08333333 </v>
    <v>      -0.25000000       0.25000000       0.08333333 </v>
    <v>      -0.16666667       0.25000000       0.08333333 </v>
    <v>      -0.08333333       0.25000000       0.08333333 </v>
    <v>       0.00000000       0.33333333       0.08333333 </v>
    <v>       0.08333333       0.33333333       0.08333333 </v>
    <v>       0.16666667       0.33333333       0.08333333 </v>
    <v>       0.25000000       0.33333333       0.08333333 </v>
    <v>       0.33333333       0.33333333       0.08333333 </v>
    <v>       0.41666667       0.33333333       0.08333333 </v>
    <v>       0.50000000       0.33333333       0.08333333 </v>
    <v>      -0.41666667       0.33333333       0.08333333 </v>
    <v>      -0.33333333       0.33333333       0.08333333 </v>
    <v>      -0.25000000       0.33333333       0.08333333 </v>
    <v>      -0.16666667       0.33333333       0.08333333 </v>
    <v>      -0.08333333       0.33333333       0.08333333 </v>
    <v>       0.00000000       0.41666667       0.08333333 </v>
    <v>       0.08333333       0.41666667       0.08333333 </v>
    <v>       0.16666667       0.41666667       0.08333333 </v>
    <v>       0.25000000       0.41666667       0.08333333 </v>
    <v>       0.33333333       0.41666667       0.08333333 </v>
    <v>       0.41666667       0.41666667       0.08333333 </v>
    <v>       0.50000000       0.41666667       0.08333333 </v>
    <v>      -0.41666667       0.41666667       0.08333333 </v>
    <v>      -0.33333333       0.41666667       0.08333333 </v>
    <v>      -0.25000000       0.41666667       0.08333333 </v>
    <v>      -0.16666667       0.41666667       0.08333333 </v>
    <v>      -0.08333333       0.41666667       0.08333333 </v>
    <v>       0.00000000       0.50000000       0.08333333 </v>
    <v>       0.08333333       0.50000000       0.08333333 </v>
    <v>       0.16666667       0.50000000       0.08333333 </v>
    <v>       0.25000000       0.50000000       0.08333333 </v>
    <v>       0.33333333       0.50000000       0.08333333 </v>
    <v>       0.41666667       0.50000000       0.08333333 </v>
    <v>       0.50000000       0.50000000       0.08333333 </v>
    <v>      -0.41666667       0.50000000       0.08333333 </v>
    <v>      -0.33333333       0.50000000       0.08333333 </v>
    <v>      -0.25000000       0.50000000       0.08333333 </v>
    <v>      -0.16666667       0.50000000       0.08333333 </v>
    <v>      -0.08333333       0.50000000       0.08333333 </v>
    <v>       0.00000000      -0.41666667       0.08333333 </v>
    <v>       0.08333333      -0.41666667       0.08333333 </v>
    <v>       0.16666667      -0.41666667       0.08333333 </v>
    <v>       0.25000000      -0.41666667       0.08333333 </v>
    <v>       0.33333333      -0.41666667       0.08333333 </v>
    <v>       0.41666667      -0.41666667       0.08333333 </v>
    <v>       0.50000000      -0.41666667       0.08333333 </v>
    <v>      -0.41666667      -0.41666667       0.08333333 </v>
    <v>      -0.33333333      -0.41666667       0.08333333 </v>
    <v>      -0.25000000      -0.41666667       0.08333333 </v>
    <v>      -0.16666667      -0.41666667       0.08333333 </v>
    <v>      -0.08333333      -0.41666667       0.08333333 </v>
    <v>       0.00000000      -0.33333333       0.08333333 </v>
    <v>       0.08333333      -0.33333333       0.08333333 </v>
    <v>       0.16666667      -0.33333333       0.08333333 </v>
    <v>       0.25000000      -0.33333333       0.08333333 </v>
    <v>       0.33333333      -0.33333333       0.08333333 </v>
    <v>       0.41666667      -0.33333333       0.08333333 </v>
    <v>       0.50000000      -0.33333333       0.08333333 </v>
    <v>      -0.41666667      -0.33333333       0.08333333 </v>
    <v>      -0.33333333      -0.33333333       0.08333333 </v>
    <v>      -0.25000000      -0.33333333       0.08333333 </v>
    <v>      -0.16666667      -0.33333333       0.08333333 </v>
    <v>      -0.08333333      -0.33333333       0.08333333 </v>
    <v>       0.00000000      -0.25000000       0.08333333 </v>
    <v>       0.08333333      -0.25000000       0.08333333 </v>
    <v>       0.16666667      -0.25000000       0.08333333 </v>
    <v>       0.25000000      -0.25000000       0.08333333 </v>
    <v>       0.33333333      -0.25000000       0.08333333 </v>
    <v>       0.41666667      -0.25000000       0.08333333 </v>
    <v>       0.50000000      -0.25000000       0.08333333 </v>
    <v>      -0.41666667      -0.25000000       0.08333333 </v>
    <v>      -0.33333333      -0.25000000       0.08333333 </v>
    <v>      -0.25000000      -0.25000000       0.08333333 </v>
    <v>      -0.16666667      -0.25000000       0.08333333 </v>
    <v>      -0.08333333      -0.25000000       0.08333333 </v>
    <v>       0.00000000      -0.16666667       0.08333333 </v>
    <v>       0.08333333      -0.16666667       0.08333333 </v>
    <v>       0.16666667      -0.16666667       0.08333333 </v>
    <v>       0.25000000      -0.16666667       0.08333333 </v>
    <v>       0.33333333      -0.16666667       0.08333333 </v>
    <v>       0.41666667      -0.16666667       0.08333333 </v>
    <v>       0.50000000      -0.16666667       0.08333333 </v>
    <v>      -0.41666667      -0.16666667       0.08333333 </v>
    <v>      -0.33333333      -0.16666667       0.08333333 </v>
    <v>      -0.25000000      -0.16666667       0.08333333 </v>
    <v>      -0.16666667      -0.16666667       0.08333333 </v>
    <v>      -0.08333333      -0.16666667       0.08333333 </v>
    <v>       0.00000000      -0.08333333       0.08333333 </v>
    <v>       0.08333333      -0.08333333       0.08333333 </v>
    <v>       0.16666667      -0.08333333       0.08333333 </v>
    <v>       0.25000000      -0.08333333       0.08333333 </v>
    <v>       0.33333333      -0.08333333       0.08333333 </v>
    <v>       0.41666667      -0.08333333       0.08333333 </v>
    <v>       0.50000000      -0.08333333       0.08333333 </v>
    <v>       0.00000000       0.16666667       0.16666667 </v>
    <v>       0.08333333       0.16666667       0.16666667 </v>
    <v>       0.16666667       0.16666667       0.16666667 </v>
    <v>       0.25000000       0.16666667       0.16666667 </v>
    <v>       0.33333333       0.16666667       0.16666667 </v>
    <v>       0.41666667       0.16666667       0.16666667 </v>
    <v>       0.50000000       0.16666667       0.16666667 </v>
    <v>      -0.41666667       0.16666667       0.16666667 </v>
    <v>      -0.33333333       0.16666667       0.16666667 </v>
    <v>      -0.25000000       0.16666667       0.16666667 </v>
    <v>      -0.16666667       0.16666667       0.16666667 </v>
    <v>      -0.08333333       0.16666667       0.16666667 </v>
    <v>       0.00000000       0.25000000       0.16666667 </v>
    <v>       0.08333333       0.25000000       0.16666667 </v>
    <v>       0.16666667       0.25000000       0.16666667 </v>
    <v>       0.25000000       0.25000000       0.16666667 </v>
    <v>       0.33333333       0.25000000       0.16666667 </v>
    <v>       0.41666667       0.25000000       0.16666667 </v>
    <v>       0.50000000       0.25000000       0.16666667 </v>
    <v>      -0.41666667       0.25000000       0.16666667 </v>
    <v>      -0.33333333       0.25000000       0.16666667 </v>
    <v>      -0.25000000       0.25000000       0.16666667 </v>
    <v>      -0.16666667       0.25000000       0.16666667 </v>
    <v>      -0.08333333       0.25000000       0.16666667 </v>
    <v>       0.00000000       0.33333333       0.16666667 </v>
    <v>       0.08333333       0.33333333       0.16666667 </v>
    <v>       0.16666667       0.33333333       0.16666667 </v>
    <v>       0.25000000       0.33333333       0.16666667 </v>
    <v>       0.33333333       0.33333333       0.16666667 </v>
    <v>       0.41666667       0.33333333       0.16666667 </v>
    <v>       0.50000000       0.33333333       0.16666667 </v>
    <v>      -0.41666667       0.33333333       0.16666667 </v>
    <v>      -0.33333333       0.33333333       0.16666667 </v>
    <v>      -0.25000000       0.33333333       0.16666667 </v>
    <v>      -0.16666667       0.33333333       0.16666667 </v>
    <v>      -0.08333333       0.33333333       0.16666667 </v>
    <v>       0.00000000       0.41666667       0.16666667 </v>
    <v>       0.08333333       0.41666667       0.16666667 </v>
    <v>       0.16666667       0.41666667       0.16666667 </v>
    <v>       0.25000000       0.41666667       0.16666667 </v>
    <v>       0.33333333       0.41666667       0.16666667 </v>
    <v>       0.41666667       0.41666667       0.16666667 </v>
    <v>       0.50000000       0.41666667       0.16666667 </v>
    <v>      -0.41666667       0.41666667       0.16666667 </v>
    <v>      -0.33333333       0.41666667       0.16666667 </v>
    <v>      -0.25000000       0.41666667       0.16666667 </v>
    <v>      -0.16666667       0.41666667       0.16666667 </v>
    <v>      -0.08333333       0.41666667       0.16666667 </v>
    <v>       0.00000000       0.50000000       0.16666667 </v>
    <v>       0.08333333       0.50000000       0.16666667 </v>
    <v>       0.16666667       0.50000000       0.16666667 </v>
    <v>       0.25000000       0.50000000       0.16666667 </v>
    <v>       0.33333333       0.50000000       0.16666667 </v>
    <v>       0.41666667       0.50000000       0.16666667 </v>
    <v>       0.50000000       0.50000000       0.16666667 </v>
    <v>      -0.41666667       0.50000000       0.16666667 </v>
    <v>      -0.33333333       0.50000000       0.16666667 </v>
    <v>      -0.25000000       0.50000000       0.16666667 </v>
    <v>      -0.16666667       0.50000000       0.16666667 </v>
    <v>      -0.08333333       0.50000000       0.16666667 </v>
    <v>       0.00000000      -0.41666667       0.16666667 </v>
    <v>       0.08333333      -0.41666667       0.16666667 </v>
    <v>       0.16666667      -0.41666667       0.16666667 </v>
    <v>       0.25000000      -0.41666667       0.16666667 </v>
    <v>       0.33333333      -0.41666667       0.16666667 </v>
    <v>       0.41666667      -0.41666667       0.16666667 </v>
    <v>       0.50000000      -0.41666667       0.16666667 </v>
    <v>      -0.41666667      -0.41666667       0.16666667 </v>
    <v>      -0.33333333      -0.41666667       0.16666667 </v>
    <v>      -0.25000000      -0.41666667       0.16666667 </v>
    <v>      -0.16666667      -0.41666667       0.16666667 </v>
    <v>      -0.08333333      -0.41666667       0.16666667 </v>
    <v>       0.00000000      -0.33333333       0.16666667 </v>
    <v>       0.08333333      -0.33333333       0.16666667 </v>
    <v>       0.16666667      -0.33333333       0.16666667 </v>
    <v>       0.25000000      -0.33333333       0.16666667 </v>
    <v>       0.33333333      -0.33333333       0.16666667 </v>
    <v>       0.41666667      -0.33333333       0.16666667 </v>
    <v>       0.50000000      -0.33333333       0.16666667 </v>
    <v>      -0.41666667      -0.33333333       0.16666667 </v>
    <v>      -0.33333333      -0.33333333       0.16666667 </v>
    <v>      -0.25000000      -0.33333333       0.16666667 </v>
    <v>      -0.16666667      -0.33333333       0.16666667 </v>
    <v>      -0.08333333      -0.33333333       0.16666667 </v>
    <v>       0.00000000      -0.25000000       0.16666667 </v>
    <v>       0.08333333      -0.25000000       0.16666667 </v>
    <v>       0.16666667      -0.25000000       0.16666667 </v>
    <v>       0.25000000      -0.25000000       0.16666667 </v>
    <v>       0.33333333      -0.25000000       0.16666667 </v>
    <v>       0.41666667      -0.25000000       0.16666667 </v>
    <v>       0.50000000      -0.25000000       0.16666667 </v>
    <v>      -0.41666667      -0.25000000       0.16666667 </v>
    <v>      -0.33333333      -0.25000000       0.16666667 </v>
    <v>      -0.25000000      -0.25000000       0.16666667 </v>
    <v>      -0.16666667      -0.25000000       0.16666667 </v>
    <v>      -0.08333333      -0.25000000       0.16666667 </v>
    <v>       0.00000000      -0.16666667       0.16666667 </v>
    <v>       0.08333333      -0.16666667       0.16666667 </v>
    <v>       0.16666667      -0.16666667       0.16666667 </v>
    <v>       0.25000000      -0.16666667       0.16666667 </v>
    <v>       0.33333333      -0.16666667       0.16666667 </v>
    <v>       0.41666667      -0.16666667       0.16666667 </v>
    <v>       0.50000000      -0.16666667       0.16666667 </v>
    <v>       0.00000000       0.25000000       0.25000000 </v>
    <v>       0.08333333       0.25000000       0.25000000 </v>
    <v>       0.16666667       0.25000000       0.25000000 </v>
    <v>       0.25000000       0.25000000       0.25000000 </v>
    <v>       0.33333333       0.25000000       0.25000000 </v>
    <v>       0.41666667       0.25000000       0.25000000 </v>
    <v>       0.50000000       0.25000000       0.25000000 </v>
    <v>      -0.41666667       0.25000000       0.25000000 </v>
    <v>      -0.33333333       0.25000000       0.25000000 </v>
    <v>      -0.25000000       0.25000000       0.25000000 </v>
    <v>      -0.16666667       0.25000000       0.25000000 </v>
    <v>      -0.08333333       0.25000000       0.25000000 </v>
    <v>       0.00000000       0.33333333       0.25000000 </v>
    <v>       0.08333333       0.33333333       0.25000000 </v>
    <v>       0.16666667       0.33333333       0.25000000 </v>
    <v>       0.25000000       0.33333333       0.25000000 </v>
    <v>       0.33333333       0.33333333       0.25000000 </v>
    <v>       0.41666667       0.33333333       0.25000000 </v>
    <v>       0.50000000       0.33333333       0.25000000 </v>
    <v>      -0.41666667       0.33333333       0.25000000 </v>
    <v>      -0.33333333       0.33333333       0.25000000 </v>
    <v>      -0.25000000       0.33333333       0.25000000 </v>
    <v>      -0.16666667       0.33333333       0.25000000 </v>
    <v>      -0.08333333       0.33333333       0.25000000 </v>
    <v>       0.00000000       0.41666667       0.25000000 </v>
    <v>       0.08333333       0.41666667       0.25000000 </v>
    <v>       0.16666667       0.41666667       0.25000000 </v>
    <v>       0.25000000       0.41666667       0.25000000 </v>
    <v>       0.33333333       0.41666667       0.25000000 </v>
    <v>       0.41666667       0.41666667       0.25000000 </v>
    <v>       0.50000000       0.41666667       0.25000000 </v>
    <v>      -0.41666667       0.41666667       0.25000000 </v>
    <v>      -0.33333333       0.41666667       0.25000000 </v>
    <v>      -0.25000000       0.41666667       0.25000000 </v>
    <v>      -0.16666667       0.41666667       0.25000000 </v>
    <v>      -0.08333333       0.41666667       0.25000000 </v>
    <v>       0.00000000       0.50000000       0.25000000 </v>
    <v>       0.08333333       0.50000000       0.25000000 </v>
    <v>       0.16666667       0.50000000       0.25000000 </v>
    <v>       0.25000000       0.50000000       0.25000000 </v>
    <v>       0.33333333       0.50000000       0.25000000 </v>
    <v>       0.41666667       0.50000000       0.25000000 </v>
    <v>       0.50000000       0.50000000       0.25000000 </v>
    <v>      -0.41666667       0.50000000       0.25000000 </v>
    <v>      -0.33333333       0.50000000       0.25000000 </v>
    <v>      -0.25000000       0.50000000       0.25000000 </v>
    <v>      -0.16666667       0.50000000       0.25000000 </v>
    <v>      -0.08333333       0.50000000       0.25000000 </v>
    <v>       0.00000000      -0.41666667       0.25000000 </v>
    <v>       0.08333333      -0.41666667       0.25000000 </v>
    <v>       0.16666667      -0.41666667       0.25000000 </v>
    <v>       0.25000000      -0.41666667       0.25000000 </v>
    <v>       0.33333333      -0.41666667       0.25000000 </v>
    <v>       0.41666667      -0.41666667       0.25000000 </v>
    <v>       0.50000000      -0.41666667       0.25000000 </v>
    <v>      -0.41666667      -0.41666667       0.25000000 </v>
    <v>      -0.33333333      -0.41666667       0.25000000 </v>
    <v>      -0.25000000      -0.41666667       0.25000000 </v>
    <v>      -0.16666667      -0.41666667       0.25000000 </v>
    <v>      -0.08333333      -0.41666667       0.25000000 </v>
    <v>       0.00000000      -0.33333333       0.25000000 </v>
    <v>       0.08333333      -0.33333333       0.25000000 </v>
    <v>       0.16666667      -0.33333333       0.25000000 </v>
    <v>       0.25000000      -0.33333333       0.25000000 </v>
    <v>       0.33333333      -0.33333333       0.25000000 </v>
    <v>       0.41666667      -0.33333333       0.25000000 </v>
    <v>       0.50000000      -0.33333333       0.25000000 </v>
    <v>      -0.41666667      -0.33333333       0.25000000 </v>
    <v>      -0.33333333      -0.33333333       0.25000000 </v>
    <v>      -0.25000000      -0.33333333       0.25000000 </v>
    <v>      -0.16666667      -0.33333333       0.25000000 </v>
    <v>      -0.08333333      -0.33333333       0.25000000 </v>
    <v>       0.00000000      -0.25000000       0.25000000 </v>
    <v>       0.08333333      -0.25000000       0.25000000 </v>
    <v>       0.16666667      -0.25000000       0.25000000 </v>
    <v>       0.25000000      -0.25000000       0.25000000 </v>
    <v>       0.33333333      -0.25000000       0.25000000 </v>
    <v>       0.41666667      -0.25000000       0.25000000 </v>
    <v>       0.50000000      -0.25000000       0.25000000 </v>
    <v>       0.00000000       0.33333333       0.33333333 </v>
    <v>       0.08333333       0.33333333       0.33333333 </v>
    <v>       0.16666667       0.33333333       0.33333333 </v>
    <v>       0.25000000       0.33333333       0.33333333 </v>
    <v>       0.33333333       0.33333333       0.33333333 </v>
    <v>       0.41666667       0.33333333       0.33333333 </v>
    <v>       0.50000000       0.33333333       0.33333333 </v>
    <v>      -0.41666667       0.33333333       0.33333333 </v>
    <v>      -0.33333333       0.33333333       0.33333333 </v>
    <v>      -0.25000000       0.33333333       0.33333333 </v>
    <v>      -0.16666667       0.33333333       0.33333333 </v>
    <v>      -0.08333333       0.33333333       0.33333333 </v>
    <v>       0.00000000       0.41666667       0.33333333 </v>
    <v>       0.08333333       0.41666667       0.33333333 </v>
    <v>       0.16666667       0.41666667       0.33333333 </v>
    <v>       0.25000000       0.41666667       0.33333333 </v>
    <v>       0.33333333       0.41666667       0.33333333 </v>
    <v>       0.41666667       0.41666667       0.33333333 </v>
    <v>       0.50000000       0.41666667       0.33333333 </v>
    <v>      -0.41666667       0.41666667       0.33333333 </v>
    <v>      -0.33333333       0.41666667       0.33333333 </v>
    <v>      -0.25000000       0.41666667       0.33333333 </v>
    <v>      -0.16666667       0.41666667       0.33333333 </v>
    <v>      -0.08333333       0.41666667       0.33333333 </v>
    <v>       0.00000000       0.50000000       0.33333333 </v>
    <v>       0.08333333       0.50000000       0.33333333 </v>
    <v>       0.16666667       0.50000000       0.33333333 </v>
    <v>       0.25000000       0.50000000       0.33333333 </v>
    <v>       0.33333333       0.50000000       0.33333333 </v>
    <v>       0.41666667       0.50000000       0.33333333 </v>
    <v>       0.50000000       0.50000000       0.33333333 </v>
    <v>      -0.41666667       0.50000000       0.33333333 </v>
    <v>      -0.33333333       0.50000000       0.33333333 </v>
    <v>      -0.25000000       0.50000000       0.33333333 </v>
    <v>      -0.16666667       0.50000000       0.33333333 </v>
    <v>      -0.08333333       0.50000000       0.33333333 </v>
    <v>       0.00000000      -0.41666667       0.33333333 </v>
    <v>       0.08333333      -0.41666667       0.33333333 </v>
    <v>       0.16666667      -0.41666667       0.33333333 </v>
    <v>       0.25000000      -0.41666667       0.33333333 </v>
    <v>       0.33333333      -0.41666667       0.33333333 </v>
    <v>       0.41666667      -0.41666667       0.33333333 </v>
    <v>       0.50000000      -0.41666667       0.33333333 </v>
    <v>      -0.41666667      -0.41666667       0.33333333 </v>
    <v>      -0.33333333      -0.41666667       0.33333333 </v>
    <v>      -0.25000000      -0.41666667       0.33333333 </v>
    <v>      -0.16666667      -0.41666667       0.33333333 </v>
    <v>      -0.08333333      -0.41666667       0.33333333 </v>
    <v>       0.00000000      -0.33333333       0.33333333 </v>
    <v>       0.08333333      -0.33333333       0.33333333 </v>
    <v>       0.16666667      -0.33333333       0.33333333 </v>
    <v>       0.25000000      -0.33333333       0.33333333 </v>
    <v>       0.33333333      -0.33333333       0.33333333 </v>
    <v>       0.41666667      -0.33333333       0.33333333 </v>
    <v>       0.50000000      -0.33333333       0.33333333 </v>
    <v>       0.00000000       0.41666667       0.41666667 </v>
    <v>       0.08333333       0.41666667       0.41666667 </v>
    <v>       0.16666667       0.41666667       0.41666667 </v>
    <v>       0.25000000       0.41666667       0.41666667 </v>
    <v>       0.33333333       0.41666667       0.41666667 </v>
    <v>       0.41666667       0.41666667       0.41666667 </v>
    <v>       0.50000000       0.41666667       0.41666667 </v>
    <v>      -0.41666667       0.41666667       0.41666667 </v>
    <v>      -0.33333333       0.41666667       0.41666667 </v>
    <v>      -0.25000000       0.41666667       0.41666667 </v>
    <v>      -0.16666667       0.41666667       0.41666667 </v>
    <v>      -0.08333333       0.41666667       0.41666667 </v>
    <v>       0.00000000       0.50000000       0.41666667 </v>
    <v>       0.08333333       0.50000000       0.41666667 </v>
    <v>       0.16666667       0.50000000       0.41666667 </v>
    <v>       0.25000000       0.50000000       0.41666667 </v>
    <v>       0.33333333       0.50000000       0.41666667 </v>
    <v>       0.41666667       0.50000000       0.41666667 </v>
    <v>       0.50000000       0.50000000       0.41666667 </v>
    <v>      -0.41666667       0.50000000       0.41666667 </v>
    <v>      -0.33333333       0.50000000       0.41666667 </v>
    <v>      -0.25000000       0.50000000       0.41666667 </v>
    <v>      -0.16666667       0.50000000       0.41666667 </v>
    <v>      -0.08333333       0.50000000       0.41666667 </v>
    <v>       0.00000000      -0.41666667       0.41666667 </v>
    <v>       0.08333333      -0.41666667       0.41666667 </v>
    <v>       0.16666667      -0.41666667       0.41666667 </v>
    <v>       0.25000000      -0.41666667       0.41666667 </v>
    <v>       0.33333333      -0.41666667       0.41666667 </v>
    <v>       0.41666667      -0.41666667       0.41666667 </v>
    <v>       0.50000000      -0.41666667       0.41666667 </v>
    <v>       0.00000000       0.50000000       0.50000000 </v>
    <v>       0.08333333       0.50000000       0.50000000 </v>
    <v>       0.16666667       0.50000000       0.50000000 </v>
    <v>       0.25000000       0.50000000       0.50000000 </v>
    <v>       0.33333333       0.50000000       0.50000000 </v>
    <v>       0.41666667       0.50000000       0.50000000 </v>
    <v>       0.50000000       0.50000000       0.50000000 </v>
   </varray>
   <varray name="weights" >
    <v>       0.00057870 </v>
    <v>       0.00115741 </v>
    <v>       0.00115741 </v>
    <v>       0.00115741 </v>
    <v>       0.00115741 </v>
    <v>       0.00115741 </v>
    <v>       0.00057870 </v>
    <v>       0.00231481 </v>
    <v>       0.00231481 </v>
    <v>       0.00231481 </v>
    <v>       0.00231481 </v>
    <v>       0.00231481 </v>
    <v>       0.00231481 </v>
    <v>       0.00231481 </v>
    <v>       0.00231481 </v>
    <v>       0.00231481 </v>
    <v>       0.00231481 </v>
    <v>       0.00231481 </v>
    <v>       0.00231481 </v>
    <v>       0.00231481 </v>
    <v>       0.00231481 </v>
    <v>       0.00231481 </v>
    <v>       0.00231481 </v>
    <v>       0.00231481 </v>
    <v>       0.00231481 </v>
    <v>       0.00231481 </v>
    <v>       0.00231481 </v>
    <v>       0.00231481 </v>
    <v>       0.00231481 </v>
    <v>       0.00231481 </v>
    <v>       0.00231481 </v>
    <v>       0.00231481 </v>
    <v>       0.00231481 </v>
    <v>       0.00231481 </v>
    <v>       0.00231481 </v>
    <v>       0.00231481 </v>
    <v>       0.00231481 </v>
    <v>       0.00231481 </v>
    <v>       0.00231481 </v>
    <v>       0.00231481 </v>
    <v>       0.00231481 </v>
    <v>       0.00231481 </v>
    <v>       0.00231481 </v>
    <v>       0.00231481 </v>
    <v>       0.00231481 </v>
    <v>       0.00231481 </v>
    <v>       0.00231481 </v>
    <v>       0.00231481 </v>
    <v>       0.00231481 </v>
    <v>       0.00231481 </v>
    <v>       0.00231481 </v>
    <v>       0.00231481 </v>
    <v>       0.00231481 </v>
    <v>       0.00231481 </v>
    <v>       0.00231481 </v>
    <v>       0.00231481 </v>
    <v>       0.00231481 </v>
    <v>       0.00231481 </v>
    <v>       0.00231481 </v>
    <v>       0.00231481 </v>
    <v>       0.00231481 </v>
    <v>       0.00231481 </v>
    <v>       0.00231481 </v>
    <v>       0.00231481 </v>
    <v>       0.00231481 </v>
    <v>       0.00231481 </v>
    <v>       0.00231481 </v>
    <v>       0.00115741 </v>
    <v>       0.00231481 </v>
    <v>       0.00231481 </v>
    <v>       0.00231481 </v>
    <v>       0.00231481 </v>
    <v>       0.00231481 </v>
    <v>       0.00115741 </v>
    <v>       0.00115741 </v>
    <v>       0.00115741 </v>
    <v>       0.00115741 </v>
    <v>       0.00115741 </v>
    <v>       0.00115741 </v>
    <v>       0.00115741 </v>
    <v>       0.00115741 </v>
    <v>       0.00115741 </v>
    <v>       0.00115741 </v>
    <v>       0.00115741 </v>
    <v>       0.00115741 </v>
    <v>       0.00115741 </v>
    <v>       0.00231481 </v>
    <v>       0.00231481 </v>
    <v>       0.00231481 </v>
    <v>       0.00231481 </v>
    <v>       0.00231481 </v>
    <v>       0.00231481 </v>
    <v>       0.00231481 </v>
    <v>       0.00231481 </v>
    <v>       0.00231481 </v>
    <v>       0.00231481 </v>
    <v>       0.00231481 </v>
    <v>       0.00231481 </v>
    <v>       0.00231481 </v>
    <v>       0.00231481 </v>
    <v>       0.00231481 </v>
    <v>       0.00231481 </v>
    <v>       0.00231481 </v>
    <v>       0.00231481 </v>
    <v>       0.00231481 </v>
    <v>       0.00231481 </v>
    <v>       0.00231481 </v>
    <v>       0.00231481 </v>
    <v>       0.00231481 </v>
    <v>       0.00231481 </v>
    <v>       0.00231481 </v>
    <v>       0.00231481 </v>
    <v>       0.00231481 </v>
    <v>       0.00231481 </v>
    <v>       0.00231481 </v>
    <v>       0.00231481 </v>
    <v>       0.00231481 </v>
    <v>       0.00231481 </v>
    <v>       0.00231481 </v>
    <v>       0.00231481 </v>
    <v>       0.00231481 </v>
    <v>       0.00231481 </v>
    <v>       0.00231481 </v>
    <v>       0.00231481 </v>
[...]
       <r>    5.9602    0.0000 </r>
       <r>    6.9423    0.0000 </r>
       <r>   13.8625    0.0000 </r>
       <r>   14.7410    0.0000 </r>
       <r>   14.8855    0.0000 </r>
      </set>
      <set comment="kpoint 184">
       <r>  -10.5700    1.0000 </r>
       <r>   -7.1666    1.0000 </r>
       <r>   -7.1666    1.0000 </r>
       <r>   -7.1346    1.0000 </r>
       <r>   -6.9544    1.0000 </r>
       <r>   -6.9544    1.0000 </r>
       <r>   -0.1030    1.0000 </r>
       <r>    0.6554    1.0000 </r>
       <r>    0.6554    1.0000 </r>
       <r>    0.8185    1.0000 </r>
       <r>    5.5633    0.0000 </r>
       <r>    5.5633    0.0000 </r>
       <r>    6.2344    0.0000 </r>
       <r>   14.6082    0.0000 </r>
       <r>   15.0618    0.0000 </r>
       <r>   15.0618    0.0000 </r>
      </set>
      <set comment="kpoint 185">
       <r>  -10.5572    1.0000 </r>
       <r>   -7.1743    1.0000 </r>
       <r>   -7.1657    1.0000 </r>
       <r>   -7.1513    1.0000 </r>
       <r>   -6.9541    1.0000 </r>
       <r>   -6.9401    1.0000 </r>
       <r>    0.1235    1.0000 </r>
       <r>    0.5881    1.0000 </r>
       <r>    0.7185    1.0000 </r>
       <r>    0.7335    1.0000 </r>
       <r>    5.4158    0.0000 </r>
       <r>    5.5300    0.0000 </r>
       <r>    5.9228    0.0000 </r>
       <r>   14.8017    0.0000 </r>
       <r>   15.1298    0.0000 </r>
       <r>   15.3405    0.0000 </r>
      </set>
      <set comment="kpoint 186">
       <r>  -10.5700    1.0000 </r>
       <r>   -7.1666    1.0000 </r>
       <r>   -7.1666    1.0000 </r>
       <r>   -7.1346    1.0000 </r>
       <r>   -6.9544    1.0000 </r>
       <r>   -6.9544    1.0000 </r>
       <r>   -0.1030    1.0000 </r>
       <r>    0.6554    1.0000 </r>
       <r>    0.6554    1.0000 </r>
       <r>    0.8185    1.0000 </r>
       <r>    5.5633    0.0000 </r>
       <r>    5.5633    0.0000 </r>
       <r>    6.2344    0.0000 </r>
       <r>   14.6082    0.0000 </r>
       <r>   15.0618    0.0000 </r>
       <r>   15.0618    0.0000 </r>
      </set>
      <set comment="kpoint 187">
       <r>  -10.5440    1.0000 </r>
       <r>   -7.1733    1.0000 </r>
       <r>   -7.1733    1.0000 </r>
       <r>   -7.1698    1.0000 </r>
       <r>   -6.9468    1.0000 </r>
       <r>   -6.9326    1.0000 </r>
       <r>    0.4003    1.0000 </r>
       <r>    0.6003    1.0000 </r>
       <r>    0.6003    1.0000 </r>
       <r>    0.7381    1.0000 </r>
       <r>    5.3929    0.0000 </r>
       <r>    5.3929    0.0000 </r>
       <r>    5.5416    0.0000 </r>
       <r>   15.0206    0.0000 </r>
       <r>   15.4311    0.0000 </r>
       <r>   15.4311    0.0000 </r>
      </set>
      <set comment="kpoint 188">
       <r>  -10.5572    1.0000 </r>
       <r>   -7.1743    1.0000 </r>
       <r>   -7.1657    1.0000 </r>
       <r>   -7.1513    1.0000 </r>
       <r>   -6.9541    1.0000 </r>
       <r>   -6.9401    1.0000 </r>
       <r>    0.1235    1.0000 </r>
       <r>    0.5881    1.0000 </r>
       <r>    0.7185    1.0000 </r>
       <r>    0.7335    1.0000 </r>
       <r>    5.4158    0.0000 </r>
       <r>    5.5300    0.0000 </r>
       <r>    5.9228    0.0000 </r>
       <r>   14.8017    0.0000 </r>
       <r>   15.1298    0.0000 </r>
       <r>   15.3405    0.0000 </r>
      </set>
      <set comment="kpoint 189">
       <r>  -10.5303    1.0000 </r>
       <r>   -7.1812    1.0000 </r>
       <r>   -7.1812    1.0000 </r>
       <r>   -7.1812    1.0000 </r>
       <r>   -6.9323    1.0000 </r>
       <r>   -6.9323    1.0000 </r>
       <r>    0.5251    1.0000 </r>
       <r>    0.6827    1.0000 </r>
       <r>    0.6827    1.0000 </r>
       <r>    0.6827    1.0000 </r>
       <r>    5.2392    0.0000 </r>
       <r>    5.2392    0.0000 </r>
       <r>    5.2392    0.0000 </r>
       <r>   15.5233    0.0000 </r>
       <r>   15.5233    0.0000 </r>
       <r>   15.5233    0.0000 </r>
      </set>
     </set>
    </set>
   </array>
  </eigenvalues>
  <separator name="orbital magnetization" >
   <v name="MAGDIPOLOUT">      0.00000000      0.00000000      0.00000000</v>
  </separator>
  <dos>
   <i name="efermi">      2.76130275 </i>
   <total>
    <array>
     <dimension dim="1">gridpoints</dimension>
     <dimension dim="2">spin</dimension>
     <field>energy</field>
     <field>total</field>
     <field>integrated</field>
     <set>
      <set comment="spin 1">
       <r>   -12.4603     0.0000     0.0000 </r>
       <r>   -12.3589     0.0000     0.0000 </r>
       <r>   -12.2575     0.0000     0.0000 </r>
       <r>   -12.1561     0.0000     0.0000 </r>
       <r>   -12.0547     0.0000     0.0000 </r>
       <r>   -11.9533     0.0000     0.0000 </r>
       <r>   -11.8519     0.0000     0.0000 </r>
       <r>   -11.7505     0.0000     0.0000 </r>
       <r>   -11.6492     0.0000     0.0000 </r>
       <r>   -11.5478     0.0000     0.0000 </r>
       <r>   -11.4464     0.0000     0.0000 </r>
       <r>   -11.3450     0.0000     0.0000 </r>
       <r>   -11.2436     0.0000     0.0000 </r>
       <r>   -11.1422     0.0000     0.0000 </r>
       <r>   -11.0408     0.1993     0.0202 </r>
       <r>   -10.9394     1.3708     0.1702 </r>
       <r>   -10.8380     3.1914     0.5308 </r>
       <r>   -10.7366     6.8031     1.3866 </r>
       <r>   -10.6352     2.9257     1.8673 </r>
       <r>   -10.5338     0.9115     1.9987 </r>
       <r>   -10.4324     0.0000     2.0000 </r>
       <r>   -10.3310     0.0000     2.0000 </r>
       <r>   -10.2297     0.0000     2.0000 </r>
       <r>   -10.1283     0.0000     2.0000 </r>
       <r>   -10.0269     0.0000     2.0000 </r>
       <r>    -9.9255     0.0000     2.0000 </r>
       <r>    -9.8241     0.0000     2.0000 </r>
       <r>    -9.7227     0.0000     2.0000 </r>
       <r>    -9.6213     0.0000     2.0000 </r>
       <r>    -9.5199     0.0000     2.0000 </r>
       <r>    -9.4185     0.0000     2.0000 </r>
       <r>    -9.3171     0.0000     2.0000 </r>
       <r>    -9.2157     0.0000     2.0000 </r>
       <r>    -9.1143     0.0000     2.0000 </r>
       <r>    -9.0129     0.0000     2.0000 </r>
       <r>    -8.9115     0.0000     2.0000 </r>
       <r>    -8.8102     0.0000     2.0000 </r>
       <r>    -8.7088     0.0000     2.0000 </r>
       <r>    -8.6074     0.0000     2.0000 </r>
       <r>    -8.5060     0.0000     2.0000 </r>
       <r>    -8.4046     0.0000     2.0000 </r>
       <r>    -8.3032     0.0000     2.0000 </r>
       <r>    -8.2018     0.0000     2.0000 </r>
       <r>    -8.1004     0.0000     2.0000 </r>
       <r>    -7.9990     0.0000     2.0000 </r>
       <r>    -7.8976     0.0000     2.0000 </r>
       <r>    -7.7962     0.0000     2.0000 </r>
       <r>    -7.6948     0.0000     2.0000 </r>
       <r>    -7.5934     0.0000     2.0000 </r>
       <r>    -7.4920     0.0000     2.0000 </r>
       <r>    -7.3907     0.0000     2.0000 </r>
       <r>    -7.2893     0.0000     2.0000 </r>
       <r>    -7.1879     7.0323     2.7130 </r>
       <r>    -7.0865    23.8136     5.5350 </r>
       <r>    -6.9851    46.0167    11.4413 </r>
       <r>    -6.8837     3.5271    12.0000 </r>
       <r>    -6.7823     0.0000    12.0000 </r>
       <r>    -6.6809     0.0000    12.0000 </r>
       <r>    -6.5795     0.0000    12.0000 </r>
       <r>    -6.4781     0.0000    12.0000 </r>
       <r>    -6.3767     0.0000    12.0000 </r>
       <r>    -6.2753     0.0000    12.0000 </r>
       <r>    -6.1739     0.0000    12.0000 </r>
       <r>    -6.0725     0.0000    12.0000 </r>
       <r>    -5.9712     0.0000    12.0000 </r>
       <r>    -5.8698     0.0000    12.0000 </r>
       <r>    -5.7684     0.0000    12.0000 </r>
       <r>    -5.6670     0.0000    12.0000 </r>
       <r>    -5.5656     0.0000    12.0000 </r>
       <r>    -5.4642     0.0000    12.0000 </r>
       <r>    -5.3628     0.0000    12.0000 </r>
       <r>    -5.2614     0.0000    12.0000 </r>
       <r>    -5.1600     0.0000    12.0000 </r>
       <r>    -5.0586     0.0000    12.0000 </r>
       <r>    -4.9572     0.0000    12.0000 </r>
       <r>    -4.8558     0.0000    12.0000 </r>
       <r>    -4.7544     0.0000    12.0000 </r>
       <r>    -4.6530     0.0000    12.0000 </r>
       <r>    -4.5517     0.0000    12.0000 </r>
       <r>    -4.4503     0.0000    12.0000 </r>
       <r>    -4.3489     0.0000    12.0000 </r>
       <r>    -4.2475     0.0000    12.0000 </r>
       <r>    -4.1461     0.0000    12.0000 </r>
       <r>    -4.0447     0.0000    12.0000 </r>
       <r>    -3.9433     0.0000    12.0000 </r>
       <r>    -3.8419     0.0000    12.0000 </r>
       <r>    -3.7405     0.0000    12.0000 </r>
       <r>    -3.6391     0.0000    12.0000 </r>
       <r>    -3.5377     0.0000    12.0000 </r>
       <r>    -3.4363     0.0000    12.0000 </r>
       <r>    -3.3349     0.0000    12.0000 </r>
       <r>    -3.2335     0.0000    12.0000 </r>
       <r>    -3.1322     0.0000    12.0000 </r>
       <r>    -3.0308     0.0000    12.0000 </r>
       <r>    -2.9294     0.0000    12.0000 </r>
       <r>    -2.8280     0.0000    12.0000 </r>
       <r>    -2.7266     0.0338    12.0034 </r>
       <r>    -2.6252     0.4129    12.0453 </r>
       <r>    -2.5238     0.3412    12.1006 </r>
       <r>    -2.4224     1.1309    12.2154 </r>
       <r>    -2.3210     0.9081    12.3178 </r>
       <r>    -2.2196     0.9838    12.4991 </r>
       <r>    -2.1182     2.4483    12.8003 </r>
       <r>    -2.0168     0.3068    13.0022 </r>
       <r>    -1.9154     1.5316    13.1634 </r>
       <r>    -1.8140     0.2854    13.2199 </r>
       <r>    -1.7127     1.3890    13.3607 </r>
       <r>    -1.6113     0.5573    13.4292 </r>
       <r>    -1.5099     0.5481    13.4977 </r>
       <r>    -1.4085     0.5478    13.5532 </r>
       <r>    -1.3071     0.3709    13.5908 </r>
       <r>    -1.2057     0.5479    13.6505 </r>
       <r>    -1.1043     1.0040    13.7523 </r>
       <r>    -1.0029     0.0000    13.7569 </r>
       <r>    -0.9015     0.2891    13.7863 </r>
       <r>    -0.8001     0.2740    13.8403 </r>
       <r>    -0.6987     0.1370    13.8542 </r>
       <r>    -0.5973     0.3766    13.8924 </r>
       <r>    -0.4959     0.1154    13.9041 </r>
       <r>    -0.3945     0.0685    13.9271 </r>
       <r>    -0.2932     0.0115    13.9283 </r>
       <r>    -0.1918     0.3254    13.9948 </r>
       <r>    -0.0904     0.6451    14.0758 </r>
       <r>     0.0110     0.5452    14.1444 </r>
       <r>     0.1124     1.1807    14.2922 </r>
       <r>     0.2138     1.0678    14.4404 </r>
       <r>     0.3152     0.4974    14.5354 </r>
       <r>     0.4166     1.9710    14.7820 </r>
       <r>     0.5180     2.8988    15.2164 </r>
       <r>     0.6194     0.8259    15.3546 </r>
       <r>     0.7208     2.2630    15.5975 </r>
       <r>     0.8222     2.1451    15.8738 </r>
       <r>     0.9236     2.2933    16.1758 </r>
       <r>     1.0250     2.1325    16.3933 </r>
       <r>     1.1263     2.5468    16.7548 </r>
       <r>     1.2277     2.1420    16.9892 </r>
       <r>     1.3291     4.6663    17.5611 </r>
       <r>     1.4305     2.7057    17.9040 </r>
       <r>     1.5319     3.3822    18.3152 </r>
       <r>     1.6333     3.7536    18.7556 </r>
       <r>     1.7347     1.6473    18.9575 </r>
       <r>     1.8361     1.1205    19.1055 </r>
       <r>     1.9375     0.2938    19.1606 </r>
       <r>     2.0389     0.6935    19.2428 </r>
       <r>     2.1403     1.4776    19.4265 </r>
       <r>     2.2417     2.8555    19.7421 </r>
       <r>     2.3431     0.8213    19.9062 </r>
       <r>     2.4445     0.4094    19.9478 </r>
       <r>     2.5458     0.1370    19.9826 </r>
       <r>     2.6472     0.1369    19.9965 </r>
       <r>     2.7486     0.0342    20.0000 </r>
       <r>     2.8500     0.0000    20.0000 </r>
       <r>     2.9514     0.0000    20.0000 </r>
       <r>     3.0528     0.0000    20.0000 </r>
       <r>     3.1542     0.0000    20.0000 </r>
       <r>     3.2556     0.0000    20.0000 </r>
       <r>     3.3570     0.0000    20.0000 </r>
       <r>     3.4584     0.0000    20.0000 </r>
       <r>     3.5598     0.0000    20.0000 </r>
       <r>     3.6612     0.0000    20.0000 </r>
       <r>     3.7626     0.0000    20.0000 </r>
       <r>     3.8639     0.0000    20.0000 </r>
       <r>     3.9653     0.0000    20.0000 </r>
       <r>     4.0667     0.0000    20.0000 </r>
       <r>     4.1681     0.0000    20.0000 </r>
       <r>     4.2695     0.0000    20.0000 </r>
       <r>     4.3709     0.0000    20.0000 </r>
       <r>     4.4723     0.0000    20.0000 </r>
       <r>     4.5737     0.0000    20.0000 </r>
       <r>     4.6751     0.0000    20.0000 </r>
       <r>     4.7765     0.0182    20.0018 </r>
       <r>     4.8779     0.0000    20.0035 </r>
       <r>     4.9793     0.0006    20.0035 </r>
       <r>     5.0807     0.0000    20.0174 </r>
       <r>     5.1821     0.0815    20.0256 </r>
       <r>     5.2834     0.0343    20.0417 </r>
       <r>     5.3848     0.2914    20.0712 </r>
       <r>     5.4862     0.4109    20.1250 </r>
       <r>     5.5876     0.5250    20.1782 </r>
       <r>     5.6890     0.2740    20.2060 </r>
       <r>     5.7904     0.5504    20.2618 </r>
       <r>     5.8918     0.8896    20.3657 </r>
       <r>     5.9932     0.6779    20.4553 </r>
       <r>     6.0946     0.5790    20.5147 </r>
       <r>     6.1960     0.8351    20.6032 </r>
       <r>     6.2974     1.0692    20.7380 </r>
       <r>     6.3988     2.1604    20.9691 </r>
       <r>     6.5002     1.3615    21.2052 </r>
       <r>     6.6016     0.8584    21.3069 </r>
       <r>     6.7029     1.6294    21.5240 </r>
       <r>     6.8043     1.7854    21.7482 </r>
       <r>     6.9057     0.9315    21.9116 </r>
       <r>     7.0071     1.2328    22.0394 </r>
       <r>     7.1085     1.0478    22.1456 </r>
       <r>     7.2099     1.6941    22.3570 </r>
       <r>     7.3113     0.4049    22.4346 </r>
       <r>     7.4127     1.3660    22.5876 </r>
       <r>     7.5141     0.6245    22.6652 </r>
       <r>     7.6155     0.3669    22.7478 </r>
       <r>     7.7169     0.1370    22.8843 </r>
       <r>     7.8183     0.9431    22.9799 </r>
       <r>     7.9197     1.2545    23.1596 </r>
       <r>     8.0211     0.2695    23.2264 </r>
       <r>     8.1224     0.2744    23.3195 </r>
       <r>     8.2238     0.9131    23.4259 </r>
       <r>     8.3252     1.8872    23.6173 </r>
       <r>     8.4266     0.6183    23.7317 </r>
       <r>     8.5280     0.5479    23.8079 </r>
       <r>     8.6294     1.0062    23.9099 </r>
       <r>     8.7308     0.5479    24.0069 </r>
       <r>     8.8322     1.0598    24.1144 </r>
       <r>     8.9336     0.0685    24.1528 </r>
       <r>     9.0350     1.5723    24.3122 </r>
       <r>     9.1364     0.2740    24.3750 </r>
       <r>     9.2378     0.8657    24.4628 </r>
       <r>     9.3392     0.3939    24.5608 </r>
       <r>     9.4406     1.4509    24.7235 </r>
       <r>     9.5419     1.9894    24.9401 </r>
       <r>     9.6433     3.0162    25.2781 </r>
       <r>     9.7447     0.4112    25.3889 </r>
       <r>     9.8461     0.8219    25.5000 </r>
       <r>     9.9475     0.9593    25.5973 </r>
       <r>    10.0489     1.0960    25.7361 </r>
       <r>    10.1503     0.3155    25.7820 </r>
       <r>    10.2517     0.2941    25.8631 </r>
       <r>    10.3531     0.1765    25.9068 </r>
       <r>    10.4545     0.5231    25.9628 </r>
       <r>    10.5559     0.0571    25.9711 </r>
       <r>    10.6573     0.0684    25.9780 </r>
       <r>    10.7587     0.1450    25.9927 </r>
       <r>    10.8601     0.0000    25.9988 </r>
       <r>    10.9614     0.2904    26.0283 </r>
       <r>    11.0628     0.0000    26.0336 </r>
       <r>    11.1642     0.4098    26.0751 </r>
       <r>    11.2656     0.2740    26.1030 </r>
       <r>    11.3670     0.2868    26.1321 </r>
       <r>    11.4684     0.0262    26.1682 </r>
       <r>    11.5698     1.2556    26.3102 </r>
       <r>    11.6712     0.5185    26.3882 </r>
       <r>    11.7726     0.9316    26.4903 </r>
       <r>    11.8740     0.7840    26.5725 </r>
       <r>    11.9754     1.5911    26.7516 </r>
       <r>    12.0768     1.3461    26.9837 </r>
       <r>    12.1782     0.9605    27.0835 </r>
       <r>    12.2796     1.1772    27.2097 </r>
       <r>    12.3809     0.9589    27.3542 </r>
       <r>    12.4823     1.0958    27.4653 </r>
       <r>    12.5837     0.5017    27.5162 </r>
       <r>    12.6851     1.0140    27.6236 </r>
       <r>    12.7865     0.2740    27.7060 </r>
       <r>    12.8879     0.0585    27.7120 </r>
       <r>    12.9893     0.5859    27.8001 </r>
       <r>    13.0907     0.5426    27.8791 </r>
       <r>    13.1921     0.2028    27.9002 </r>
       <r>    13.2935     1.0935    28.0113 </r>
       <r>    13.3949     0.3069    28.0427 </r>
       <r>    13.4963     0.5275    28.1114 </r>
       <r>    13.5977     0.4704    28.1611 </r>
       <r>    13.6991     0.5314    28.2229 </r>
       <r>    13.8004     0.8217    28.3310 </r>
       <r>    13.9018     0.9123    28.4235 </r>
       <r>    14.0032     0.8795    28.5591 </r>
       <r>    14.1046     1.5172    28.7696 </r>
       <r>    14.2060     1.1102    28.9089 </r>
       <r>    14.3074     1.6165    29.1141 </r>
       <r>    14.4088     3.0212    29.5482 </r>
       <r>    14.5102     3.3160    29.9184 </r>
       <r>    14.6116     2.3698    30.2183 </r>
       <r>    14.7130     0.9589    30.3900 </r>
       <r>    14.8144     2.3142    30.6247 </r>
       <r>    14.9158     2.0011    30.8661 </r>
       <r>    15.0172     2.3067    31.1193 </r>
       <r>    15.1186     1.3524    31.3489 </r>
       <r>    15.2199     0.2360    31.3862 </r>
       <r>    15.3213     0.2793    31.4195 </r>
       <r>    15.4227     1.6363    31.6266 </r>
       <r>    15.5241     0.5669    31.6987 </r>
       <r>    15.6255     0.4258    31.7712 </r>
       <r>    15.7269     0.9602    31.9156 </r>
       <r>    15.8283     0.0000    31.9502 </r>
       <r>    15.9297     0.1566    31.9661 </r>
       <r>    16.0311     0.0000    31.9664 </r>
       <r>    16.1325     0.0213    31.9686 </r>
       <r>    16.2339     0.0000    31.9757 </r>
       <r>    16.3353     0.0000    31.9757 </r>
       <r>    16.4367     0.1370    31.9896 </r>
       <r>    16.5381     0.0685    31.9965 </r>
       <r>    16.6394     0.0342    32.0000 </r>
       <r>    16.7408     0.0000    32.0000 </r>
       <r>    16.8422     0.0000    32.0000 </r>
       <r>    16.9436     0.0000    32.0000 </r>
       <r>    17.0450     0.0000    32.0000 </r>
       <r>    17.1464     0.0000    32.0000 </r>
       <r>    17.2478     0.0000    32.0000 </r>
       <r>    17.3492     0.0000    32.0000 </r>
       <r>    17.4506     0.0000    32.0000 </r>
       <r>    17.5520     0.0000    32.0000 </r>
       <r>    17.6534     0.0000    32.0000 </r>
       <r>    17.7548     0.0000    32.0000 </r>
       <r>    17.8562     0.0000    32.0000 </r>
       <r>    17.9576     0.0000    32.0000 </r>
      </set>
     </set>
    </array>
   </total>
  </dos>
 </calculation>
 <structure name="finalpos" >
  <crystal>
   <varray name="basis" >
    <v>       3.83746709       0.00000000       0.00000000 </v>
    <v>       0.00000000       3.83746709       0.00000000 </v>
    <v>       0.00000000       0.00000000       3.83746709 </v>
   </varray>
   <i name="volume">     56.51112985 </i>
   <varray name="rec_basis" >
    <v>       0.26058855       0.00000000       0.00000000 </v>
    <v>       0.00000000       0.26058855       0.00000000 </v>
    <v>       0.00000000       0.00000000       0.26058855 </v>
   </varray>
  </crystal>
  <varray name="positions" >
   <v>       0.00000000       0.00000000       0.00000000 </v>
   <v>       0.50000004       0.50000004       0.50000004 </v>
  </varray>
 </structure>
</modeling>
