 
             +---------------------------------------------------+
             |                                                   |
             |                   WANNIER90                       |
             |                                                   |
             +---------------------------------------------------+
             |                                                   |
             |        Welcome to the Maximally-Localized         |
             |        Generalized Wannier Functions code         |
             |            http://www.wannier.org                 |
             |                                                   |
             |                                                   |
             |  Wannier90 Developer Group:                       |
             |    Giovanni Pizzi    (EPFL)                       |
             |    Valerio Vitale    (Cambridge)                  |
             |    David Vanderbilt  (Rutgers University)         |
             |    Nicola Marzari    (EPFL)                       |
             |    Ivo Souza         (Universidad del Pais Vasco) |
             |    Arash A. Mostofi  (Imperial College London)    |
             |    Jonathan R. Yates (University of Oxford)       |
             |                                                   |
             |  For the full list of Wannier90 3.x authors,      |
             |  please check the code documentation and the      |
             |  README on the GitHub page of the code            |
             |                                                   |
             |                                                   |
             |  Please cite                                      |
             |                                                   |
             |  [ref] "Wannier90 as a community code:            |
             |        new features and applications",            |
             |        G. Pizzi et al., J. Phys. Cond. Matt. 32,  |
             |        165902 (2020).                             |
             |        http://doi.org/10.1088/1361-648X/ab51ff    |
             |                                                   |
             |  in any publications arising from the use of      |
             |  this code. For the method please cite            |
             |                                                   |
             |  [ref] "Maximally Localized Generalised Wannier   |
             |         Functions for Composite Energy Bands"     |
             |         N. Marzari and D. Vanderbilt              |
             |         Phys. Rev. B 56 12847 (1997)              |
             |                                                   |
             |  [ref] "Maximally Localized Wannier Functions     |
             |         for Entangled Energy Bands"               |
             |         I. Souza, N. Marzari and D. Vanderbilt    |
             |         Phys. Rev. B 65 035109 (2001)             |
             |                                                   |
             |                                                   |
             | Copyright (c) 1996-2020                           |
             |        The Wannier90 Developer Group and          |
             |        individual contributors                    |
             |                                                   |
             |      Release: 3.1.0        5th March    2020      |
             |                                                   |
             | This program is free software; you can            |
             | redistribute it and/or modify it under the terms  |
             | of the GNU General Public License as published by |
             | the Free Software Foundation; either version 2 of |
             | the License, or (at your option) any later version|
             |                                                   |
             | This program is distributed in the hope that it   |
             | will be useful, but WITHOUT ANY WARRANTY; without |
             | even the implied warranty of MERCHANTABILITY or   |
             | FITNESS FOR A PARTICULAR PURPOSE. See the GNU     |
             | General Public License for more details.          |
             |                                                   |
             | You should have received a copy of the GNU General|
             | Public License along with this program; if not,   |
             | write to the Free Software Foundation, Inc.,      |
             | 675 Mass Ave, Cambridge, MA 02139, USA.           |
             |                                                   |
             +---------------------------------------------------+
             |    Execution started on  3Jan2024 at 14:32:45     |
             +---------------------------------------------------+
 
 ******************************************************************************
 * -> Using CODATA 2006 constant values                                       *
 *    (http://physics.nist.gov/cuu/Constants/index.html)                      *
 * -> Using Bohr value from CODATA                                            *
 ******************************************************************************
 

 Running in parallel on   8 CPUs

 
                                    ------
                                    SYSTEM
                                    ------
 
                              Lattice Vectors (Ang)
                    a_1    -3.139711   0.000000   3.139711
                    a_2     0.000000   3.139711   3.139711
                    a_3    -3.139711   3.139711   0.000000
 
                   Unit Cell Volume:      61.90119  (Ang^3)
 
                        Reciprocal-Space Vectors (Ang^-1)
                    b_1    -1.000599  -1.000599   1.000599
                    b_2     1.000599   1.000599   1.000599
                    b_3    -1.000599   1.000599  -1.000599
  
 *----------------------------------------------------------------------------*
 |   Site       Fractional Coordinate          Cartesian Coordinate (Ang)     |
 +----------------------------------------------------------------------------+
 | Sr   1   0.00000   0.00000   0.00000   |    0.00000   0.00000   0.00000    |
 | Se   1   0.50000   0.50000   0.50000   |   -3.13971   3.13971   3.13971    |
 *----------------------------------------------------------------------------*
                                ------------
                                K-POINT GRID
                                ------------
  
             Grid size = 12 x 12 x 12      Total points = 1728
  
  
 *---------------------------------- MAIN ------------------------------------*
 |  Number of Wannier Functions               :                 3             |
 |  Number of Objective Wannier Functions     :                 3             |
 |  Number of input Bloch states              :                 3             |
 |  Output verbosity (1=low, 5=high)          :                 1             |
 |  Timing Level (1=low, 5=high)              :                 1             |
 |  Optimisation (0=memory, 3=speed)          :                 3             |
 |  Length Unit                               :               Ang             |
 |  Post-processing setup (write *.nnkp)      :                 F             |
 |  Using Gamma-only branch of algorithms     :                 F             |
 *----------------------------------------------------------------------------*
 *------------------------------- WANNIERISE ---------------------------------*
 |  Total number of iterations                :               500             |
 |  Number of CG steps before reset           :                 5             |
 |  Trial step length for line search         :             2.000             |
 |  Convergence tolerence                     :         0.100E-09             |
 |  Convergence window                        :                -1             |
 |  Iterations between writing output         :                 1             |
 |  Iterations between backing up to disk     :               100             |
 |  Write r^2_nm to file                      :                 F             |
 |  Write xyz WF centres to file              :                 F             |
 |  Write on-site energies <0n|H|0n> to file  :                 F             |
 |  Use guiding centre to control phases      :                 F             |
 |  Use phases for initial projections        :                 F             |
 *----------------------------------------------------------------------------*
 Time to read parameters        0.103 (sec)

 *---------------------------------- K-MESH ----------------------------------*
 +----------------------------------------------------------------------------+
 |                    Distance to Nearest-Neighbour Shells                    |
 |                    ------------------------------------                    |
 |          Shell             Distance (Ang^-1)          Multiplicity         |
 |          -----             -----------------          ------------         |
 |             1                   0.144424                      8            |
 |             2                   0.166767                      6            |
 |             3                   0.235844                     12            |
 |             4                   0.276551                     24            |
 |             5                   0.288848                      8            |
 |             6                   0.333533                      6            |
 |             7                   0.363459                     24            |
 |             8                   0.372901                     24            |
 |             9                   0.408493                     24            |
 |            10                   0.433272                     32            |
 |            11                   0.471687                     12            |
 |            12                   0.493302                     48            |
 |            13                   0.500300                     30            |
 |            14                   0.527362                     24            |
 |            15                   0.546781                     24            |
 |            16                   0.553102                     24            |
 |            17                   0.577696                      8            |
 |            18                   0.595476                     48            |
 |            19                   0.601285                     24            |
 |            20                   0.623983                     48            |
 |            21                   0.640479                     72            |
 |            22                   0.667066                      6            |
 |            23                   0.682522                     24            |
 |            24                   0.687596                     48            |
 |            25                   0.707531                     36            |
 |            26                   0.722120                     56            |
 |            27                   0.726919                     24            |
 |            28                   0.745803                     24            |
 |            29                   0.759658                     72            |
 |            30                   0.764220                     48            |
 |            31                   0.782204                     24            |
 |            32                   0.795426                     48            |
 |            33                   0.816986                     24            |
 |            34                   0.829653                     72            |
 |            35                   0.833833                     30            |
 |            36                   0.850346                     72            |
 +----------------------------------------------------------------------------+
 | The b-vectors are chosen automatically                                     |
 | The following shells are used:   1                                         |
 +----------------------------------------------------------------------------+
 |                        Shell   # Nearest-Neighbours                        |
 |                        -----   --------------------                        |
 |                          1               8                                 |
 +----------------------------------------------------------------------------+
 | Completeness relation is fully satisfied [Eq. (B1), PRB 56, 12847 (1997)]  |
 +----------------------------------------------------------------------------+
 |                  b_k Vectors (Ang^-1) and Weights (Ang^2)                  |
 |                  ----------------------------------------                  |
 |            No.         b_k(x)      b_k(y)      b_k(z)        w_b           |
 |            ---        --------------------------------     --------        |
 |             1        -0.083383    0.083383   -0.083383    17.978446        |
 |             2         0.083383    0.083383    0.083383    17.978446        |
 |             3        -0.083383   -0.083383    0.083383    17.978446        |
 |             4        -0.083383    0.083383    0.083383    17.978446        |
 |             5         0.083383   -0.083383    0.083383    17.978446        |
 |             6        -0.083383   -0.083383   -0.083383    17.978446        |
 |             7         0.083383    0.083383   -0.083383    17.978446        |
 |             8         0.083383   -0.083383   -0.083383    17.978446        |
 +----------------------------------------------------------------------------+
 |                           b_k Directions (Ang^-1)                          |
 |                           -----------------------                          |
 |            No.           x           y           z                         |
 |            ---        --------------------------------                     |
 |             1        -0.083383    0.083383   -0.083383                     |
 |             2         0.083383    0.083383    0.083383                     |
 |             3        -0.083383   -0.083383    0.083383                     |
 |             4        -0.083383    0.083383    0.083383                     |
 +----------------------------------------------------------------------------+
  
 Time to get kmesh              1.040 (sec)
 *============================================================================*
 |                              MEMORY ESTIMATE                               |
 |         Maximum RAM allocated during each phase of the calculation         |
 *============================================================================*
 |                            Wannierise:            7.00 Mb                  |
 |                          plot_wannier:            7.00 Mb                  |
 *----------------------------------------------------------------------------*
  
 Starting a new Wannier90 calculation ...


 Reading overlaps from mp-2758.mmn    :  Created on  3Jan2024 at 14:32:38

 Reading projections from mp-2758.amn :  Created on  3Jan2024 at 14:32:37  with SCDM

 Time to read overlaps          0.139 (sec)

 Writing checkpoint file mp-2758.chk... done

 
 *------------------------------- WANNIERISE ---------------------------------*
 +--------------------------------------------------------------------+<-- CONV
 | Iter  Delta Spread     RMS Gradient      Spread (Ang^2)      Time  |<-- CONV
 +--------------------------------------------------------------------+<-- CONV
 
 ------------------------------------------------------------------------------
 Initial State
  WF centre and spread    1  (  0.000086,  3.140208,  0.000043 )     2.80821395
  WF centre and spread    2  (  3.140553,  0.000077, -0.000294 )     2.80512840
  WF centre and spread    3  ( -0.000306, -0.000056,  3.140466 )     2.80485895
  Sum of centres and spreads (  3.140333,  3.140230,  3.140214 )     8.41820129
 
      0     0.842E+01     0.0000000000        8.4182036612       0.00  <-- CONV
        O_D=      0.0902178 O_OD=      0.2229951 O_TOT=      8.4182037 <-- SPRD
 ------------------------------------------------------------------------------
 Cycle:      1
  WF centre and spread    1  ( -0.000115,  3.140201, -0.000135 )     2.73651062
  WF centre and spread    2  (  3.140241, -0.000142, -0.000223 )     2.73564082
  WF centre and spread    3  ( -0.000220, -0.000155,  3.140252 )     2.73572905
  Sum of centres and spreads (  3.139906,  3.139905,  3.139894 )     8.20788049
 
      1    -0.210E+00     0.1323095442        8.2078828567       0.01  <-- CONV
        O_D=      0.0254967 O_OD=      0.0773953 O_TOT=      8.2078829 <-- SPRD
 Delta: O_D= -0.6472101E-01 O_OD= -0.1455998E+00 O_TOT= -0.2103208E+00 <-- DLTA
 ------------------------------------------------------------------------------
 Cycle:      2
  WF centre and spread    1  ( -0.000167,  3.140207, -0.000174 )     2.72355168
  WF centre and spread    2  (  3.140230, -0.000185, -0.000222 )     2.72307633
  WF centre and spread    3  ( -0.000227, -0.000179,  3.140231 )     2.72316270
  Sum of centres and spreads (  3.139836,  3.139843,  3.139835 )     8.16979071
 
      2    -0.381E-01     0.1087485846        8.1697930763       0.01  <-- CONV
        O_D=      0.0103386 O_OD=      0.0544637 O_TOT=      8.1697931 <-- SPRD
 Delta: O_D= -0.1515819E-01 O_OD= -0.2293159E-01 O_TOT= -0.3808978E-01 <-- DLTA
 ------------------------------------------------------------------------------
 Cycle:      3
  WF centre and spread    1  ( -0.000158,  3.140141, -0.000161 )     2.71867890
  WF centre and spread    2  (  3.140156, -0.000170, -0.000190 )     2.71840546
  WF centre and spread    3  ( -0.000197, -0.000161,  3.140154 )     2.71847660
  Sum of centres and spreads (  3.139801,  3.139811,  3.139803 )     8.15556096
 
      3    -0.142E-01     0.0725796823        8.1555633266       0.02  <-- CONV
        O_D=      0.0048001 O_OD=      0.0457724 O_TOT=      8.1555633 <-- SPRD
 Delta: O_D= -0.5538429E-02 O_OD= -0.8691320E-02 O_TOT= -0.1422975E-01 <-- DLTA
 ------------------------------------------------------------------------------
 Cycle:      4
  WF centre and spread    1  ( -0.000118,  3.140025, -0.000120 )     2.71587507
  WF centre and spread    2  (  3.140032, -0.000127, -0.000137 )     2.71572201
  WF centre and spread    3  ( -0.000142, -0.000118,  3.140031 )     2.71579225
  Sum of centres and spreads (  3.139772,  3.139780,  3.139774 )     8.14738933
 
      4    -0.817E-02     0.0556651042        8.1473916989       0.03  <-- CONV
        O_D=      0.0021699 O_OD=      0.0402310 O_TOT=      8.1473917 <-- SPRD
 Delta: O_D= -0.2630267E-02 O_OD= -0.5541361E-02 O_TOT= -0.8171628E-02 <-- DLTA
 ------------------------------------------------------------------------------
 Cycle:      5
  WF centre and spread    1  ( -0.000070,  3.139899, -0.000071 )     2.71414748
  WF centre and spread    2  (  3.139899, -0.000076, -0.000080 )     2.71406513
  WF centre and spread    3  ( -0.000083, -0.000070,  3.139900 )     2.71413460
  Sum of centres and spreads (  3.139747,  3.139752,  3.139749 )     8.14234721
 
      5    -0.504E-02     0.0450718265        8.1423495714       0.03  <-- CONV
        O_D=      0.0009593 O_OD=      0.0363995 O_TOT=      8.1423496 <-- SPRD
 Delta: O_D= -0.1210585E-02 O_OD= -0.3831542E-02 O_TOT= -0.5042128E-02 <-- DLTA
 ------------------------------------------------------------------------------
 Cycle:      6
  WF centre and spread    1  ( -0.000034,  3.139802, -0.000034 )     2.71324489
  WF centre and spread    2  (  3.139802, -0.000036, -0.000038 )     2.71320748
  WF centre and spread    3  ( -0.000040, -0.000034,  3.139803 )     2.71326774
  Sum of centres and spreads (  3.139729,  3.139732,  3.139730 )     8.13972011
 
      6    -0.263E-02     0.0343854467        8.1397224758       0.04  <-- CONV
        O_D=      0.0003666 O_OD=      0.0343651 O_TOT=      8.1397225 <-- SPRD
 Delta: O_D= -0.5927179E-03 O_OD= -0.2034378E-02 O_TOT= -0.2627096E-02 <-- DLTA
 ------------------------------------------------------------------------------
 Cycle:      7
  WF centre and spread    1  ( -0.000031,  3.139793, -0.000031 )     2.71297761
  WF centre and spread    2  (  3.139794, -0.000033, -0.000034 )     2.71295091
  WF centre and spread    3  ( -0.000035, -0.000031,  3.139794 )     2.71300591
  Sum of centres and spreads (  3.139728,  3.139730,  3.139728 )     8.13893443
 
      7    -0.786E-03     0.0233967224        8.1389367998       0.05  <-- CONV
        O_D=      0.0001748 O_OD=      0.0337711 O_TOT=      8.1389368 <-- SPRD
 Delta: O_D= -0.1917031E-03 O_OD= -0.5939729E-03 O_TOT= -0.7856760E-03 <-- DLTA
 ------------------------------------------------------------------------------
 Cycle:      8
  WF centre and spread    1  ( -0.000023,  3.139774, -0.000024 )     2.71281885
  WF centre and spread    2  (  3.139775, -0.000025, -0.000026 )     2.71279741
  WF centre and spread    3  ( -0.000027, -0.000023,  3.139774 )     2.71285114
  Sum of centres and spreads (  3.139725,  3.139726,  3.139725 )     8.13846740
 
      8    -0.467E-03     0.0144159596        8.1384697677       0.06  <-- CONV
        O_D=      0.0000708 O_OD=      0.0334082 O_TOT=      8.1384698 <-- SPRD
 Delta: O_D= -0.1040832E-03 O_OD= -0.3629488E-03 O_TOT= -0.4670321E-03 <-- DLTA
 ------------------------------------------------------------------------------
 Cycle:      9
  WF centre and spread    1  ( -0.000017,  3.139757, -0.000017 )     2.71275726
  WF centre and spread    2  (  3.139758, -0.000018, -0.000019 )     2.71273785
  WF centre and spread    3  ( -0.000019, -0.000017,  3.139758 )     2.71279134
  Sum of centres and spreads (  3.139722,  3.139723,  3.139722 )     8.13828645
 
      9    -0.181E-03     0.0095733464        8.1382888193       0.06  <-- CONV
        O_D=      0.0000364 O_OD=      0.0332616 O_TOT=      8.1382888 <-- SPRD
 Delta: O_D= -0.3434985E-04 O_OD= -0.1465986E-03 O_TOT= -0.1809484E-03 <-- DLTA
 ------------------------------------------------------------------------------
 Cycle:     10
  WF centre and spread    1  ( -0.000012,  3.139744, -0.000012 )     2.71273235
  WF centre and spread    2  (  3.139745, -0.000012, -0.000013 )     2.71271428
  WF centre and spread    3  ( -0.000013, -0.000012,  3.139744 )     2.71276752
  Sum of centres and spreads (  3.139720,  3.139720,  3.139720 )     8.13821414
 
     10    -0.723E-04     0.0057160401        8.1382165104       0.07  <-- CONV
        O_D=      0.0000232 O_OD=      0.0332025 O_TOT=      8.1382165 <-- SPRD
 Delta: O_D= -0.1320312E-04 O_OD= -0.5910585E-04 O_TOT= -0.7230897E-04 <-- DLTA
 ------------------------------------------------------------------------------
 Cycle:     11
  WF centre and spread    1  ( -0.000006,  3.139730, -0.000006 )     2.71271483
  WF centre and spread    2  (  3.139731, -0.000006, -0.000007 )     2.71269890
  WF centre and spread    3  ( -0.000007, -0.000006,  3.139730 )     2.71275142
  Sum of centres and spreads (  3.139718,  3.139717,  3.139717 )     8.13816516
 
     11    -0.490E-04     0.0042048733        8.1381675212       0.08  <-- CONV
        O_D=      0.0000143 O_OD=      0.0331623 O_TOT=      8.1381675 <-- SPRD
 Delta: O_D= -0.8868208E-05 O_OD= -0.4012094E-04 O_TOT= -0.4898915E-04 <-- DLTA
 ------------------------------------------------------------------------------
 Cycle:     12
  WF centre and spread    1  ( -0.000003,  3.139722, -0.000003 )     2.71270642
  WF centre and spread    2  (  3.139724, -0.000003, -0.000003 )     2.71269194
  WF centre and spread    3  ( -0.000003, -0.000003,  3.139723 )     2.71274417
  Sum of centres and spreads (  3.139717,  3.139716,  3.139716 )     8.13814253
 
     12    -0.226E-04     0.0035518704        8.1381448986       0.08  <-- CONV
        O_D=      0.0000085 O_OD=      0.0331456 O_TOT=      8.1381449 <-- SPRD
 Delta: O_D= -0.5838402E-05 O_OD= -0.1678418E-04 O_TOT= -0.2262258E-04 <-- DLTA
 ------------------------------------------------------------------------------
 Cycle:     13
  WF centre and spread    1  ( -0.000003,  3.139722, -0.000003 )     2.71270282
  WF centre and spread    2  (  3.139723, -0.000003, -0.000003 )     2.71268902
  WF centre and spread    3  ( -0.000003, -0.000003,  3.139722 )     2.71274094
  Sum of centres and spreads (  3.139717,  3.139716,  3.139716 )     8.13813277
 
     13    -0.976E-05     0.0024240725        8.1381351392       0.09  <-- CONV
        O_D=      0.0000056 O_OD=      0.0331387 O_TOT=      8.1381351 <-- SPRD
 Delta: O_D= -0.2936832E-05 O_OD= -0.6822565E-05 O_TOT= -0.9759398E-05 <-- DLTA
 ------------------------------------------------------------------------------
 Cycle:     14
  WF centre and spread    1  ( -0.000002,  3.139721, -0.000003 )     2.71270041
  WF centre and spread    2  (  3.139722, -0.000002, -0.000003 )     2.71268713
  WF centre and spread    3  ( -0.000003, -0.000003,  3.139721 )     2.71273900
  Sum of centres and spreads (  3.139717,  3.139716,  3.139716 )     8.13812655
 
     14    -0.623E-05     0.0017356634        8.1381289124       0.10  <-- CONV
        O_D=      0.0000037 O_OD=      0.0331344 O_TOT=      8.1381289 <-- SPRD
 Delta: O_D= -0.1871573E-05 O_OD= -0.4355290E-05 O_TOT= -0.6226864E-05 <-- DLTA
 ------------------------------------------------------------------------------
 Cycle:     15
  WF centre and spread    1  ( -0.000002,  3.139719, -0.000002 )     2.71269870
  WF centre and spread    2  (  3.139720, -0.000002, -0.000002 )     2.71268573
  WF centre and spread    3  ( -0.000002, -0.000002,  3.139719 )     2.71273769
  Sum of centres and spreads (  3.139716,  3.139715,  3.139715 )     8.13812211
 
     15    -0.443E-05     0.0012293065        8.1381244805       0.10  <-- CONV
        O_D=      0.0000024 O_OD=      0.0331313 O_TOT=      8.1381245 <-- SPRD
 Delta: O_D= -0.1307590E-05 O_OD= -0.3124296E-05 O_TOT= -0.4431886E-05 <-- DLTA
 ------------------------------------------------------------------------------
 Cycle:     16
  WF centre and spread    1  ( -0.000001,  3.139716, -0.000001 )     2.71269720
  WF centre and spread    2  (  3.139717, -0.000001, -0.000001 )     2.71268428
  WF centre and spread    3  ( -0.000001, -0.000001,  3.139716 )     2.71273650
  Sum of centres and spreads (  3.139715,  3.139714,  3.139714 )     8.13811798
 
     16    -0.414E-05     0.0012014091        8.1381203446       0.11  <-- CONV
        O_D=      0.0000012 O_OD=      0.0331283 O_TOT=      8.1381203 <-- SPRD
 Delta: O_D= -0.1212730E-05 O_OD= -0.2923128E-05 O_TOT= -0.4135858E-05 <-- DLTA
 ------------------------------------------------------------------------------
 Cycle:     17
  WF centre and spread    1  ( -0.000000,  3.139714, -0.000001 )     2.71269637
  WF centre and spread    2  (  3.139714, -0.000000, -0.000001 )     2.71268336
  WF centre and spread    3  ( -0.000000, -0.000001,  3.139714 )     2.71273578
  Sum of centres and spreads (  3.139713,  3.139712,  3.139712 )     8.13811552
 
     17    -0.246E-05     0.0010644352        8.1381178852       0.12  <-- CONV
        O_D=      0.0000005 O_OD=      0.0331265 O_TOT=      8.1381179 <-- SPRD
 Delta: O_D= -0.6469239E-06 O_OD= -0.1812447E-05 O_TOT= -0.2459371E-05 <-- DLTA
 ------------------------------------------------------------------------------
 Cycle:     18
  WF centre and spread    1  ( -0.000000,  3.139713, -0.000000 )     2.71269610
  WF centre and spread    2  (  3.139713, -0.000000, -0.000000 )     2.71268303
  WF centre and spread    3  (  0.000000, -0.000000,  3.139713 )     2.71273550
  Sum of centres and spreads (  3.139713,  3.139712,  3.139712 )     8.13811463
 
     18    -0.890E-06     0.0006884854        8.1381169950       0.12  <-- CONV
        O_D=      0.0000002 O_OD=      0.0331259 O_TOT=      8.1381170 <-- SPRD
 Delta: O_D= -0.2810084E-06 O_OD= -0.6092775E-06 O_TOT= -0.8902859E-06 <-- DLTA
 ------------------------------------------------------------------------------
 Cycle:     19
  WF centre and spread    1  (  0.000000,  3.139712, -0.000000 )     2.71269597
  WF centre and spread    2  (  3.139713, -0.000000, -0.000000 )     2.71268291
  WF centre and spread    3  (  0.000000, -0.000000,  3.139713 )     2.71273535
  Sum of centres and spreads (  3.139713,  3.139712,  3.139712 )     8.13811424
 
     19    -0.393E-06     0.0005113433        8.1381166017       0.13  <-- CONV
        O_D=      0.0000001 O_OD=      0.0331256 O_TOT=      8.1381166 <-- SPRD
 Delta: O_D= -0.1213082E-06 O_OD= -0.2719401E-06 O_TOT= -0.3932483E-06 <-- DLTA
 ------------------------------------------------------------------------------
 Cycle:     20
  WF centre and spread    1  (  0.000000,  3.139712, -0.000000 )     2.71269590
  WF centre and spread    2  (  3.139712, -0.000000, -0.000000 )     2.71268286
  WF centre and spread    3  (  0.000000, -0.000000,  3.139712 )     2.71273525
  Sum of centres and spreads (  3.139713,  3.139712,  3.139712 )     8.13811401
 
     20    -0.229E-06     0.0003262581        8.1381163727       0.14  <-- CONV
        O_D=      0.0000001 O_OD=      0.0331255 O_TOT=      8.1381164 <-- SPRD
 Delta: O_D= -0.7618635E-07 O_OD= -0.1528447E-06 O_TOT= -0.2290311E-06 <-- DLTA
 ------------------------------------------------------------------------------
 Cycle:     21
  WF centre and spread    1  (  0.000000,  3.139712, -0.000000 )     2.71269587
  WF centre and spread    2  (  3.139712, -0.000000, -0.000000 )     2.71268285
  WF centre and spread    3  (  0.000000, -0.000000,  3.139712 )     2.71273520
  Sum of centres and spreads (  3.139713,  3.139712,  3.139712 )     8.13811391
 
     21    -0.943E-07     0.0002197978        8.1381162784       0.15  <-- CONV
        O_D=      0.0000000 O_OD=      0.0331254 O_TOT=      8.1381163 <-- SPRD
 Delta: O_D= -0.2890159E-07 O_OD= -0.6541082E-07 O_TOT= -0.9431241E-07 <-- DLTA
 ------------------------------------------------------------------------------
 Cycle:     22
  WF centre and spread    1  (  0.000000,  3.139712, -0.000000 )     2.71269585
  WF centre and spread    2  (  3.139712, -0.000000, -0.000000 )     2.71268284
  WF centre and spread    3  (  0.000000, -0.000000,  3.139712 )     2.71273518
  Sum of centres and spreads (  3.139713,  3.139712,  3.139712 )     8.13811387
 
     22    -0.387E-07     0.0001362301        8.1381162396       0.15  <-- CONV
        O_D=      0.0000000 O_OD=      0.0331254 O_TOT=      8.1381162 <-- SPRD
 Delta: O_D= -0.9408054E-08 O_OD= -0.2932776E-07 O_TOT= -0.3873581E-07 <-- DLTA
 ------------------------------------------------------------------------------
 Cycle:     23
  WF centre and spread    1  (  0.000000,  3.139712, -0.000000 )     2.71269584
  WF centre and spread    2  (  3.139712, -0.000000, -0.000000 )     2.71268284
  WF centre and spread    3  (  0.000000, -0.000000,  3.139712 )     2.71273517
  Sum of centres and spreads (  3.139712,  3.139711,  3.139712 )     8.13811385
 
     23    -0.287E-07     0.0000971129        8.1381162110       0.16  <-- CONV
        O_D=      0.0000000 O_OD=      0.0331254 O_TOT=      8.1381162 <-- SPRD
 Delta: O_D= -0.1972139E-09 O_OD= -0.2847568E-07 O_TOT= -0.2867290E-07 <-- DLTA
 ------------------------------------------------------------------------------
 Cycle:     24
  WF centre and spread    1  (  0.000000,  3.139711,  0.000000 )     2.71269582
  WF centre and spread    2  (  3.139712,  0.000000,  0.000000 )     2.71268283
  WF centre and spread    3  (  0.000000,  0.000000,  3.139711 )     2.71273517
  Sum of centres and spreads (  3.139712,  3.139711,  3.139711 )     8.13811382
 
     24    -0.261E-07     0.0001262326        8.1381161849       0.17  <-- CONV
        O_D=      0.0000000 O_OD=      0.0331253 O_TOT=      8.1381162 <-- SPRD
 Delta: O_D=  0.6724607E-09 O_OD= -0.2677778E-07 O_TOT= -0.2610532E-07 <-- DLTA
 ------------------------------------------------------------------------------
 Cycle:     25
  WF centre and spread    1  (  0.000000,  3.139711,  0.000000 )     2.71269580
  WF centre and spread    2  (  3.139712,  0.000000,  0.000000 )     2.71268282
  WF centre and spread    3  (  0.000000,  0.000000,  3.139711 )     2.71273516
  Sum of centres and spreads (  3.139712,  3.139711,  3.139711 )     8.13811379
 
     25    -0.325E-07     0.0001172092        8.1381161523       0.17  <-- CONV
        O_D=      0.0000000 O_OD=      0.0331253 O_TOT=      8.1381162 <-- SPRD
 Delta: O_D= -0.8988088E-08 O_OD= -0.2356133E-07 O_TOT= -0.3254942E-07 <-- DLTA
 ------------------------------------------------------------------------------
 Cycle:     26
  WF centre and spread    1  (  0.000000,  3.139711,  0.000000 )     2.71269580
  WF centre and spread    2  (  3.139712,  0.000000,  0.000000 )     2.71268281
  WF centre and spread    3  (  0.000000,  0.000000,  3.139711 )     2.71273516
  Sum of centres and spreads (  3.139712,  3.139711,  3.139711 )     8.13811377
 
     26    -0.129E-07     0.0000833013        8.1381161394       0.18  <-- CONV
        O_D=      0.0000000 O_OD=      0.0331253 O_TOT=      8.1381161 <-- SPRD
 Delta: O_D= -0.1548001E-08 O_OD= -0.1139500E-07 O_TOT= -0.1294300E-07 <-- DLTA
 ------------------------------------------------------------------------------
 Cycle:     27
  WF centre and spread    1  (  0.000000,  3.139711,  0.000000 )     2.71269579
  WF centre and spread    2  (  3.139712,  0.000000,  0.000000 )     2.71268279
  WF centre and spread    3  (  0.000000,  0.000000,  3.139711 )     2.71273517
  Sum of centres and spreads (  3.139712,  3.139711,  3.139711 )     8.13811376
 
     27    -0.166E-07     0.0000664414        8.1381161228       0.19  <-- CONV
        O_D=      0.0000000 O_OD=      0.0331253 O_TOT=      8.1381161 <-- SPRD
 Delta: O_D=  0.6164979E-09 O_OD= -0.1716690E-07 O_TOT= -0.1655040E-07 <-- DLTA
 ------------------------------------------------------------------------------
 Cycle:     28
  WF centre and spread    1  (  0.000000,  3.139711,  0.000000 )     2.71269578
  WF centre and spread    2  (  3.139711,  0.000000,  0.000000 )     2.71268274
  WF centre and spread    3  (  0.000001,  0.000000,  3.139711 )     2.71273521
  Sum of centres and spreads (  3.139712,  3.139711,  3.139711 )     8.13811373
 
     28    -0.262E-07     0.0000763160        8.1381160966       0.19  <-- CONV
        O_D=      0.0000000 O_OD=      0.0331252 O_TOT=      8.1381161 <-- SPRD
 Delta: O_D=  0.1903706E-07 O_OD= -0.4525362E-07 O_TOT= -0.2621656E-07 <-- DLTA
 ------------------------------------------------------------------------------
 Cycle:     29
  WF centre and spread    1  (  0.000000,  3.139711,  0.000000 )     2.71269577
  WF centre and spread    2  (  3.139711,  0.000000,  0.000000 )     2.71268273
  WF centre and spread    3  (  0.000001,  0.000000,  3.139711 )     2.71273519
  Sum of centres and spreads (  3.139712,  3.139711,  3.139711 )     8.13811369
 
     29    -0.395E-07     0.0001872410        8.1381160571       0.20  <-- CONV
        O_D=      0.0000000 O_OD=      0.0331252 O_TOT=      8.1381161 <-- SPRD
 Delta: O_D= -0.1318439E-07 O_OD= -0.2629502E-07 O_TOT= -0.3947941E-07 <-- DLTA
 ------------------------------------------------------------------------------
 Cycle:     30
  WF centre and spread    1  (  0.000000,  3.139711,  0.000000 )     2.71269576
  WF centre and spread    2  (  3.139711,  0.000000,  0.000000 )     2.71268274
  WF centre and spread    3  (  0.000001,  0.000000,  3.139711 )     2.71273517
  Sum of centres and spreads (  3.139712,  3.139711,  3.139711 )     8.13811367
 
     30    -0.230E-07     0.0000848315        8.1381160341       0.21  <-- CONV
        O_D=      0.0000000 O_OD=      0.0331252 O_TOT=      8.1381160 <-- SPRD
 Delta: O_D= -0.3950037E-08 O_OD= -0.1903087E-07 O_TOT= -0.2298091E-07 <-- DLTA
 ------------------------------------------------------------------------------
 Cycle:     31
  WF centre and spread    1  (  0.000000,  3.139711,  0.000000 )     2.71269574
  WF centre and spread    2  (  3.139711,  0.000000,  0.000000 )     2.71268275
  WF centre and spread    3  (  0.000001,  0.000000,  3.139711 )     2.71273516
  Sum of centres and spreads (  3.139712,  3.139711,  3.139711 )     8.13811365
 
     31    -0.192E-07     0.0000939296        8.1381160149       0.21  <-- CONV
        O_D=      0.0000000 O_OD=      0.0331252 O_TOT=      8.1381160 <-- SPRD
 Delta: O_D= -0.3004482E-08 O_OD= -0.1618135E-07 O_TOT= -0.1918584E-07 <-- DLTA
 ------------------------------------------------------------------------------
 Cycle:     32
  WF centre and spread    1  (  0.000000,  3.139711,  0.000000 )     2.71269574
  WF centre and spread    2  (  3.139711,  0.000000,  0.000000 )     2.71268275
  WF centre and spread    3  (  0.000001,  0.000000,  3.139711 )     2.71273515
  Sum of centres and spreads (  3.139712,  3.139711,  3.139711 )     8.13811363
 
     32    -0.156E-07     0.0000598415        8.1381159993       0.22  <-- CONV
        O_D=      0.0000000 O_OD=      0.0331252 O_TOT=      8.1381160 <-- SPRD
 Delta: O_D=  0.2570495E-10 O_OD= -0.1564892E-07 O_TOT= -0.1562322E-07 <-- DLTA
 ------------------------------------------------------------------------------
 Cycle:     33
  WF centre and spread    1  (  0.000000,  3.139711,  0.000000 )     2.71269574
  WF centre and spread    2  (  3.139711,  0.000000,  0.000000 )     2.71268275
  WF centre and spread    3  (  0.000001,  0.000000,  3.139711 )     2.71273515
  Sum of centres and spreads (  3.139712,  3.139711,  3.139711 )     8.13811363
 
     33    -0.157E-10     0.0000578451        8.1381159993       0.22  <-- CONV
        O_D=      0.0000000 O_OD=      0.0331252 O_TOT=      8.1381160 <-- SPRD
 Delta: O_D= -0.5052676E-12 O_OD= -0.1518599E-10 O_TOT= -0.1569234E-10 <-- DLTA
 ------------------------------------------------------------------------------
 Cycle:     34
  WF centre and spread    1  (  0.000000,  3.139711,  0.000000 )     2.71269573
  WF centre and spread    2  (  3.139711,  0.000000,  0.000000 )     2.71268273
  WF centre and spread    3  (  0.000001,  0.000000,  3.139711 )     2.71273515
  Sum of centres and spreads (  3.139712,  3.139711,  3.139711 )     8.13811361
 
     34    -0.223E-07     0.0000578301        8.1381159770       0.23  <-- CONV
        O_D=      0.0000000 O_OD=      0.0331251 O_TOT=      8.1381160 <-- SPRD
 Delta: O_D=  0.1983036E-08 O_OD= -0.2432273E-07 O_TOT= -0.2233970E-07 <-- DLTA
 ------------------------------------------------------------------------------
 Cycle:     35
  WF centre and spread    1  (  0.000000,  3.139711,  0.000000 )     2.71269573
  WF centre and spread    2  (  3.139711,  0.000000,  0.000000 )     2.71268272
  WF centre and spread    3  (  0.000001,  0.000000,  3.139711 )     2.71273515
  Sum of centres and spreads (  3.139712,  3.139711,  3.139711 )     8.13811360
 
     35    -0.144E-07     0.0001172702        8.1381159625       0.24  <-- CONV
        O_D=      0.0000000 O_OD=      0.0331251 O_TOT=      8.1381160 <-- SPRD
 Delta: O_D= -0.3003441E-08 O_OD= -0.1142854E-07 O_TOT= -0.1443198E-07 <-- DLTA
 ------------------------------------------------------------------------------
 Cycle:     36
  WF centre and spread    1  (  0.000000,  3.139711,  0.000000 )     2.71269572
  WF centre and spread    2  (  3.139711,  0.000000,  0.000000 )     2.71268271
  WF centre and spread    3  (  0.000001,  0.000000,  3.139711 )     2.71273515
  Sum of centres and spreads (  3.139712,  3.139711,  3.139711 )     8.13811359
 
     36    -0.100E-07     0.0000492512        8.1381159525       0.25  <-- CONV
        O_D=      0.0000000 O_OD=      0.0331251 O_TOT=      8.1381160 <-- SPRD
 Delta: O_D= -0.4100410E-09 O_OD= -0.9586949E-08 O_TOT= -0.9996988E-08 <-- DLTA
 ------------------------------------------------------------------------------
 Cycle:     37
  WF centre and spread    1  (  0.000000,  3.139711,  0.000000 )     2.71269572
  WF centre and spread    2  (  3.139711,  0.000000,  0.000000 )     2.71268269
  WF centre and spread    3  (  0.000001,  0.000000,  3.139711 )     2.71273516
  Sum of centres and spreads (  3.139712,  3.139711,  3.139711 )     8.13811357
 
     37    -0.215E-07     0.0000490094        8.1381159310       0.25  <-- CONV
        O_D=      0.0000000 O_OD=      0.0331251 O_TOT=      8.1381159 <-- SPRD
 Delta: O_D=  0.1423470E-08 O_OD= -0.2296733E-07 O_TOT= -0.2154387E-07 <-- DLTA
 ------------------------------------------------------------------------------
 Cycle:     38
  WF centre and spread    1  (  0.000000,  3.139711,  0.000000 )     2.71269569
  WF centre and spread    2  (  3.139711,  0.000000,  0.000000 )     2.71268263
  WF centre and spread    3  (  0.000000,  0.000000,  3.139711 )     2.71273517
  Sum of centres and spreads (  3.139712,  3.139711,  3.139711 )     8.13811349
 
     38    -0.731E-07     0.0000708680        8.1381158579       0.26  <-- CONV
        O_D=      0.0000000 O_OD=      0.0331250 O_TOT=      8.1381159 <-- SPRD
 Delta: O_D=  0.7913484E-08 O_OD= -0.8096449E-07 O_TOT= -0.7305101E-07 <-- DLTA
 ------------------------------------------------------------------------------
 Cycle:     39
  WF centre and spread    1  (  0.000000,  3.139711,  0.000000 )     2.71269568
  WF centre and spread    2  (  3.139711,  0.000000,  0.000000 )     2.71268263
  WF centre and spread    3  (  0.000000,  0.000000,  3.139711 )     2.71273516
  Sum of centres and spreads (  3.139712,  3.139711,  3.139711 )     8.13811347
 
     39    -0.237E-07     0.0001461267        8.1381158342       0.27  <-- CONV
        O_D=      0.0000000 O_OD=      0.0331250 O_TOT=      8.1381158 <-- SPRD
 Delta: O_D= -0.5542888E-08 O_OD= -0.1816309E-07 O_TOT= -0.2370598E-07 <-- DLTA
 ------------------------------------------------------------------------------
 Cycle:     40
  WF centre and spread    1  (  0.000000,  3.139711,  0.000000 )     2.71269567
  WF centre and spread    2  (  3.139711,  0.000000,  0.000000 )     2.71268263
  WF centre and spread    3  (  0.000001,  0.000000,  3.139711 )     2.71273515
  Sum of centres and spreads (  3.139712,  3.139711,  3.139711 )     8.13811345
 
     40    -0.178E-07     0.0000703953        8.1381158165       0.27  <-- CONV
        O_D=      0.0000000 O_OD=      0.0331250 O_TOT=      8.1381158 <-- SPRD
 Delta: O_D= -0.2752070E-08 O_OD= -0.1503618E-07 O_TOT= -0.1778825E-07 <-- DLTA
 ------------------------------------------------------------------------------
 Cycle:     41
  WF centre and spread    1  (  0.000000,  3.139711,  0.000000 )     2.71269566
  WF centre and spread    2  (  3.139711,  0.000000,  0.000000 )     2.71268264
  WF centre and spread    3  (  0.000001,  0.000000,  3.139711 )     2.71273513
  Sum of centres and spreads (  3.139712,  3.139711,  3.139711 )     8.13811343
 
     41    -0.205E-07     0.0000570627        8.1381157960       0.28  <-- CONV
        O_D=      0.0000000 O_OD=      0.0331250 O_TOT=      8.1381158 <-- SPRD
 Delta: O_D=  0.1405675E-08 O_OD= -0.2187969E-07 O_TOT= -0.2047402E-07 <-- DLTA
 ------------------------------------------------------------------------------
 Cycle:     42
  WF centre and spread    1  (  0.000000,  3.139711,  0.000000 )     2.71269565
  WF centre and spread    2  (  3.139711,  0.000000,  0.000000 )     2.71268265
  WF centre and spread    3  (  0.000001,  0.000000,  3.139711 )     2.71273512
  Sum of centres and spreads (  3.139712,  3.139711,  3.139711 )     8.13811341
 
     42    -0.174E-07     0.0000832919        8.1381157786       0.29  <-- CONV
        O_D=      0.0000000 O_OD=      0.0331249 O_TOT=      8.1381158 <-- SPRD
 Delta: O_D=  0.5698007E-08 O_OD= -0.2312510E-07 O_TOT= -0.1742709E-07 <-- DLTA
 ------------------------------------------------------------------------------
 Cycle:     43
  WF centre and spread    1  (  0.000000,  3.139711,  0.000000 )     2.71269562
  WF centre and spread    2  (  3.139711,  0.000000,  0.000000 )     2.71268264
  WF centre and spread    3  (  0.000001,  0.000000,  3.139711 )     2.71273511
  Sum of centres and spreads (  3.139712,  3.139711,  3.139711 )     8.13811337
 
     43    -0.441E-07     0.0000984297        8.1381157344       0.29  <-- CONV
        O_D=      0.0000000 O_OD=      0.0331249 O_TOT=      8.1381157 <-- SPRD
 Delta: O_D=  0.1738097E-07 O_OD= -0.6151530E-07 O_TOT= -0.4413433E-07 <-- DLTA
 ------------------------------------------------------------------------------
 Cycle:     44
  WF centre and spread    1  (  0.000000,  3.139711,  0.000000 )     2.71269558
  WF centre and spread    2  (  3.139711,  0.000000,  0.000000 )     2.71268257
  WF centre and spread    3  (  0.000001,  0.000000,  3.139711 )     2.71273512
  Sum of centres and spreads (  3.139712,  3.139711,  3.139711 )     8.13811327
 
     44    -0.966E-07     0.0001408032        8.1381156378       0.30  <-- CONV
        O_D=      0.0000001 O_OD=      0.0331247 O_TOT=      8.1381156 <-- SPRD
 Delta: O_D=  0.3493619E-07 O_OD= -0.1315521E-06 O_TOT= -0.9661588E-07 <-- DLTA
 ------------------------------------------------------------------------------
 Cycle:     45
  WF centre and spread    1  (  0.000000,  3.139711,  0.000000 )     2.71269555
  WF centre and spread    2  (  3.139711,  0.000000,  0.000000 )     2.71268253
  WF centre and spread    3  (  0.000001,  0.000000,  3.139711 )     2.71273510
  Sum of centres and spreads (  3.139712,  3.139711,  3.139711 )     8.13811318
 
     45    -0.946E-07     0.0002698934        8.1381155432       0.31  <-- CONV
        O_D=      0.0000000 O_OD=      0.0331247 O_TOT=      8.1381155 <-- SPRD
 Delta: O_D= -0.3105706E-07 O_OD= -0.6359034E-07 O_TOT= -0.9464740E-07 <-- DLTA
 ------------------------------------------------------------------------------
 Cycle:     46
  WF centre and spread    1  (  0.000000,  3.139711,  0.000000 )     2.71269553
  WF centre and spread    2  (  3.139711,  0.000000,  0.000000 )     2.71268247
  WF centre and spread    3  (  0.000001,  0.000000,  3.139711 )     2.71273510
  Sum of centres and spreads (  3.139712,  3.139711,  3.139711 )     8.13811310
 
     46    -0.731E-07     0.0001548534        8.1381154701       0.31  <-- CONV
        O_D=      0.0000000 O_OD=      0.0331246 O_TOT=      8.1381155 <-- SPRD
 Delta: O_D= -0.2021292E-07 O_OD= -0.5286373E-07 O_TOT= -0.7307666E-07 <-- DLTA
 ------------------------------------------------------------------------------
 Cycle:     47
  WF centre and spread    1  (  0.000000,  3.139711,  0.000000 )     2.71269552
  WF centre and spread    2  (  3.139711,  0.000000,  0.000000 )     2.71268244
  WF centre and spread    3  (  0.000001,  0.000000,  3.139711 )     2.71273511
  Sum of centres and spreads (  3.139712,  3.139711,  3.139711 )     8.13811307
 
     47    -0.315E-07     0.0001211545        8.1381154386       0.32  <-- CONV
        O_D=      0.0000000 O_OD=      0.0331246 O_TOT=      8.1381154 <-- SPRD
 Delta: O_D= -0.6075541E-08 O_OD= -0.2544242E-07 O_TOT= -0.3151796E-07 <-- DLTA
 ------------------------------------------------------------------------------
 Cycle:     48
  WF centre and spread    1  (  0.000000,  3.139711,  0.000000 )     2.71269551
  WF centre and spread    2  (  3.139711,  0.000000,  0.000000 )     2.71268243
  WF centre and spread    3  (  0.000001,  0.000000,  3.139711 )     2.71273512
  Sum of centres and spreads (  3.139712,  3.139711,  3.139711 )     8.13811306
 
     48    -0.130E-07     0.0000815611        8.1381154256       0.33  <-- CONV
        O_D=      0.0000000 O_OD=      0.0331246 O_TOT=      8.1381154 <-- SPRD
 Delta: O_D= -0.1110966E-08 O_OD= -0.1185126E-07 O_TOT= -0.1296223E-07 <-- DLTA
 ------------------------------------------------------------------------------
 Cycle:     49
  WF centre and spread    1  (  0.000000,  3.139711,  0.000000 )     2.71269550
  WF centre and spread    2  (  3.139711,  0.000000,  0.000000 )     2.71268242
  WF centre and spread    3  (  0.000001,  0.000000,  3.139711 )     2.71273512
  Sum of centres and spreads (  3.139712,  3.139711,  3.139711 )     8.13811304
 
     49    -0.171E-07     0.0000683138        8.1381154085       0.34  <-- CONV
        O_D=      0.0000000 O_OD=      0.0331246 O_TOT=      8.1381154 <-- SPRD
 Delta: O_D=  0.1515502E-08 O_OD= -0.1858867E-07 O_TOT= -0.1707317E-07 <-- DLTA
 ------------------------------------------------------------------------------
 Cycle:     50
  WF centre and spread    1  (  0.000000,  3.139711,  0.000000 )     2.71269548
  WF centre and spread    2  (  3.139711,  0.000000,  0.000000 )     2.71268242
  WF centre and spread    3  (  0.000000,  0.000000,  3.139711 )     2.71273512
  Sum of centres and spreads (  3.139712,  3.139711,  3.139711 )     8.13811302
 
     50    -0.243E-07     0.0000705149        8.1381153843       0.34  <-- CONV
        O_D=      0.0000000 O_OD=      0.0331245 O_TOT=      8.1381154 <-- SPRD
 Delta: O_D=  0.1404686E-07 O_OD= -0.3831231E-07 O_TOT= -0.2426545E-07 <-- DLTA
 ------------------------------------------------------------------------------
 Cycle:     51
  WF centre and spread    1  (  0.000000,  3.139711,  0.000000 )     2.71269547
  WF centre and spread    2  (  3.139711,  0.000000,  0.000000 )     2.71268240
  WF centre and spread    3  (  0.000000,  0.000000,  3.139711 )     2.71273511
  Sum of centres and spreads (  3.139712,  3.139711,  3.139711 )     8.13811298
 
     51    -0.334E-07     0.0001817906        8.1381153509       0.35  <-- CONV
        O_D=      0.0000000 O_OD=      0.0331245 O_TOT=      8.1381154 <-- SPRD
 Delta: O_D= -0.1449507E-07 O_OD= -0.1889968E-07 O_TOT= -0.3339476E-07 <-- DLTA
 ------------------------------------------------------------------------------
 Cycle:     52
  WF centre and spread    1  (  0.000000,  3.139711,  0.000000 )     2.71269547
  WF centre and spread    2  (  3.139711,  0.000000,  0.000000 )     2.71268240
  WF centre and spread    3  (  0.000000,  0.000000,  3.139711 )     2.71273510
  Sum of centres and spreads (  3.139712,  3.139711,  3.139711 )     8.13811297
 
     52    -0.117E-07     0.0000687668        8.1381153392       0.36  <-- CONV
        O_D=      0.0000000 O_OD=      0.0331245 O_TOT=      8.1381153 <-- SPRD
 Delta: O_D= -0.1611319E-08 O_OD= -0.1008330E-07 O_TOT= -0.1169462E-07 <-- DLTA
 ------------------------------------------------------------------------------
 Cycle:     53
  WF centre and spread    1  (  0.000000,  3.139711,  0.000000 )     2.71269547
  WF centre and spread    2  (  3.139711,  0.000000,  0.000000 )     2.71268239
  WF centre and spread    3  (  0.000001,  0.000000,  3.139711 )     2.71273510
  Sum of centres and spreads (  3.139712,  3.139711,  3.139711 )     8.13811296
 
     53    -0.160E-07     0.0000641162        8.1381153232       0.36  <-- CONV
        O_D=      0.0000000 O_OD=      0.0331245 O_TOT=      8.1381153 <-- SPRD
 Delta: O_D=  0.5121457E-08 O_OD= -0.2109481E-07 O_TOT= -0.1597335E-07 <-- DLTA
 ------------------------------------------------------------------------------
 Cycle:     54
  WF centre and spread    1  (  0.000000,  3.139711,  0.000000 )     2.71269546
  WF centre and spread    2  (  3.139711,  0.000000,  0.000000 )     2.71268238
  WF centre and spread    3  (  0.000001,  0.000000,  3.139711 )     2.71273510
  Sum of centres and spreads (  3.139712,  3.139711,  3.139711 )     8.13811294
 
     54    -0.153E-07     0.0001126473        8.1381153079       0.37  <-- CONV
        O_D=      0.0000000 O_OD=      0.0331245 O_TOT=      8.1381153 <-- SPRD
 Delta: O_D= -0.4884278E-08 O_OD= -0.1038652E-07 O_TOT= -0.1527080E-07 <-- DLTA
 ------------------------------------------------------------------------------
 Cycle:     55
  WF centre and spread    1  (  0.000000,  3.139711,  0.000000 )     2.71269546
  WF centre and spread    2  (  3.139711,  0.000000,  0.000000 )     2.71268238
  WF centre and spread    3  (  0.000001,  0.000000,  3.139711 )     2.71273510
  Sum of centres and spreads (  3.139712,  3.139711,  3.139711 )     8.13811293
 
     55    -0.104E-07     0.0000652050        8.1381152975       0.38  <-- CONV
        O_D=      0.0000000 O_OD=      0.0331245 O_TOT=      8.1381153 <-- SPRD
 Delta: O_D= -0.1553785E-08 O_OD= -0.8894004E-08 O_TOT= -0.1044779E-07 <-- DLTA
 ------------------------------------------------------------------------------
 Cycle:     56
  WF centre and spread    1  (  0.000000,  3.139711,  0.000000 )     2.71269545
  WF centre and spread    2  (  3.139711,  0.000000,  0.000000 )     2.71268237
  WF centre and spread    3  (  0.000001,  0.000000,  3.139711 )     2.71273510
  Sum of centres and spreads (  3.139712,  3.139711,  3.139711 )     8.13811292
 
     56    -0.122E-07     0.0000499200        8.1381152853       0.38  <-- CONV
        O_D=      0.0000000 O_OD=      0.0331245 O_TOT=      8.1381153 <-- SPRD
 Delta: O_D=  0.1295813E-08 O_OD= -0.1346255E-07 O_TOT= -0.1216674E-07 <-- DLTA
 ------------------------------------------------------------------------------
 Cycle:     57
  WF centre and spread    1  (  0.000000,  3.139711,  0.000000 )     2.71269545
  WF centre and spread    2  (  3.139711,  0.000000,  0.000000 )     2.71268237
  WF centre and spread    3  (  0.000001,  0.000000,  3.139711 )     2.71273510
  Sum of centres and spreads (  3.139712,  3.139711,  3.139711 )     8.13811292
 
     57    -0.228E-10     0.0000704609        8.1381152853       0.39  <-- CONV
        O_D=      0.0000000 O_OD=      0.0331245 O_TOT=      8.1381153 <-- SPRD
 Delta: O_D= -0.2008481E-12 O_OD= -0.2258725E-10 O_TOT= -0.2278888E-10 <-- DLTA
 ------------------------------------------------------------------------------
 Cycle:     58
  WF centre and spread    1  (  0.000000,  3.139711,  0.000000 )     2.71269544
  WF centre and spread    2  (  3.139711,  0.000000,  0.000000 )     2.71268235
  WF centre and spread    3  (  0.000001,  0.000000,  3.139711 )     2.71273510
  Sum of centres and spreads (  3.139712,  3.139711,  3.139711 )     8.13811289
 
     58    -0.315E-07     0.0000704533        8.1381152538       0.39  <-- CONV
        O_D=      0.0000000 O_OD=      0.0331244 O_TOT=      8.1381153 <-- SPRD
 Delta: O_D=  0.4035561E-08 O_OD= -0.3549462E-07 O_TOT= -0.3145906E-07 <-- DLTA
 ------------------------------------------------------------------------------
 Cycle:     59
  WF centre and spread    1  (  0.000000,  3.139711,  0.000000 )     2.71269543
  WF centre and spread    2  (  3.139711,  0.000000,  0.000000 )     2.71268235
  WF centre and spread    3  (  0.000001,  0.000000,  3.139711 )     2.71273509
  Sum of centres and spreads (  3.139712,  3.139711,  3.139711 )     8.13811287
 
     59    -0.173E-07     0.0001286924        8.1381152365       0.40  <-- CONV
        O_D=      0.0000000 O_OD=      0.0331244 O_TOT=      8.1381152 <-- SPRD
 Delta: O_D= -0.5587948E-08 O_OD= -0.1169670E-07 O_TOT= -0.1728465E-07 <-- DLTA
 ------------------------------------------------------------------------------
 Cycle:     60
  WF centre and spread    1  (  0.000000,  3.139711,  0.000000 )     2.71269543
  WF centre and spread    2  (  3.139711,  0.000000,  0.000000 )     2.71268235
  WF centre and spread    3  (  0.000001,  0.000000,  3.139711 )     2.71273509
  Sum of centres and spreads (  3.139712,  3.139711,  3.139711 )     8.13811287
 
     60    -0.667E-11     0.0000447804        8.1381152365       0.41  <-- CONV
        O_D=      0.0000000 O_OD=      0.0331244 O_TOT=      8.1381152 <-- SPRD
 Delta: O_D= -0.4671226E-12 O_OD= -0.6203545E-11 O_TOT= -0.6670220E-11 <-- DLTA
 ------------------------------------------------------------------------------
 Cycle:     61
  WF centre and spread    1  (  0.000000,  3.139711,  0.000000 )     2.71269543
  WF centre and spread    2  (  3.139711,  0.000000,  0.000000 )     2.71268234
  WF centre and spread    3  (  0.000001,  0.000000,  3.139711 )     2.71273509
  Sum of centres and spreads (  3.139712,  3.139711,  3.139711 )     8.13811286
 
     61    -0.613E-08     0.0000447692        8.1381152304       0.41  <-- CONV
        O_D=      0.0000000 O_OD=      0.0331244 O_TOT=      8.1381152 <-- SPRD
 Delta: O_D=  0.9669834E-08 O_OD= -0.1579909E-07 O_TOT= -0.6129255E-08 <-- DLTA
 ------------------------------------------------------------------------------
 Cycle:     62
  WF centre and spread    1  (  0.000000,  3.139711,  0.000000 )     2.71269542
  WF centre and spread    2  (  3.139711,  0.000000,  0.000000 )     2.71268233
  WF centre and spread    3  (  0.000001,  0.000000,  3.139711 )     2.71273509
  Sum of centres and spreads (  3.139712,  3.139711,  3.139711 )     8.13811284
 
     62    -0.243E-07     0.0001604337        8.1381152061       0.42  <-- CONV
        O_D=      0.0000000 O_OD=      0.0331244 O_TOT=      8.1381152 <-- SPRD
 Delta: O_D= -0.9556083E-08 O_OD= -0.1476390E-07 O_TOT= -0.2431999E-07 <-- DLTA
 ------------------------------------------------------------------------------
 Cycle:     63
  WF centre and spread    1  (  0.000000,  3.139711,  0.000000 )     2.71269542
  WF centre and spread    2  (  3.139711,  0.000000,  0.000000 )     2.71268233
  WF centre and spread    3  (  0.000001,  0.000000,  3.139711 )     2.71273509
  Sum of centres and spreads (  3.139712,  3.139711,  3.139711 )     8.13811283
 
     63    -0.813E-08     0.0000487825        8.1381151980       0.43  <-- CONV
        O_D=      0.0000000 O_OD=      0.0331244 O_TOT=      8.1381152 <-- SPRD
 Delta: O_D=  0.4003183E-09 O_OD= -0.8531647E-08 O_TOT= -0.8131327E-08 <-- DLTA
 ------------------------------------------------------------------------------
 Cycle:     64
  WF centre and spread    1  (  0.000000,  3.139711,  0.000000 )     2.71269542
  WF centre and spread    2  (  3.139711,  0.000000,  0.000000 )     2.71268233
  WF centre and spread    3  (  0.000001,  0.000000,  3.139711 )     2.71273509
  Sum of centres and spreads (  3.139712,  3.139711,  3.139711 )     8.13811283
 
     64    -0.130E-10     0.0000559275        8.1381151979       0.43  <-- CONV
        O_D=      0.0000000 O_OD=      0.0331244 O_TOT=      8.1381152 <-- SPRD
 Delta: O_D= -0.1120206E-11 O_OD= -0.1191119E-10 O_TOT= -0.1303313E-10 <-- DLTA
 ------------------------------------------------------------------------------
 Cycle:     65
  WF centre and spread    1  (  0.000000,  3.139711,  0.000000 )     2.71269541
  WF centre and spread    2  (  3.139711,  0.000000,  0.000000 )     2.71268232
  WF centre and spread    3  (  0.000001,  0.000000,  3.139711 )     2.71273509
  Sum of centres and spreads (  3.139712,  3.139711,  3.139711 )     8.13811282
 
     65    -0.148E-07     0.0000559126        8.1381151832       0.44  <-- CONV
        O_D=      0.0000000 O_OD=      0.0331243 O_TOT=      8.1381152 <-- SPRD
 Delta: O_D=  0.2337771E-08 O_OD= -0.1711425E-07 O_TOT= -0.1477648E-07 <-- DLTA
 ------------------------------------------------------------------------------
 Cycle:     66
  WF centre and spread    1  (  0.000000,  3.139711,  0.000000 )     2.71269539
  WF centre and spread    2  (  3.139711,  0.000000,  0.000000 )     2.71268230
  WF centre and spread    3  (  0.000001,  0.000000,  3.139711 )     2.71273510
  Sum of centres and spreads (  3.139712,  3.139711,  3.139711 )     8.13811278
 
     66    -0.370E-07     0.0000801977        8.1381151462       0.44  <-- CONV
        O_D=      0.0000000 O_OD=      0.0331243 O_TOT=      8.1381151 <-- SPRD
 Delta: O_D=  0.2299127E-07 O_OD= -0.5997978E-07 O_TOT= -0.3698851E-07 <-- DLTA
 ------------------------------------------------------------------------------
 Cycle:     67
  WF centre and spread    1  (  0.000000,  3.139711,  0.000000 )     2.71269537
  WF centre and spread    2  (  3.139711,  0.000000,  0.000000 )     2.71268227
  WF centre and spread    3  (  0.000001,  0.000000,  3.139711 )     2.71273508
  Sum of centres and spreads (  3.139712,  3.139711,  3.139711 )     8.13811273
 
     67    -0.513E-07     0.0002283657        8.1381150949       0.45  <-- CONV
        O_D=      0.0000000 O_OD=      0.0331243 O_TOT=      8.1381151 <-- SPRD
 Delta: O_D= -0.2431414E-07 O_OD= -0.2699947E-07 O_TOT= -0.5131360E-07 <-- DLTA
 ------------------------------------------------------------------------------
 Cycle:     68
  WF centre and spread    1  (  0.000000,  3.139711,  0.000000 )     2.71269537
  WF centre and spread    2  (  3.139711,  0.000000,  0.000000 )     2.71268227
  WF centre and spread    3  (  0.000001,  0.000000,  3.139711 )     2.71273508
  Sum of centres and spreads (  3.139712,  3.139711,  3.139711 )     8.13811272
 
     68    -0.813E-08     0.0000679860        8.1381150867       0.46  <-- CONV
        O_D=      0.0000000 O_OD=      0.0331243 O_TOT=      8.1381151 <-- SPRD
 Delta: O_D= -0.7835253E-09 O_OD= -0.7345394E-08 O_TOT= -0.8128920E-08 <-- DLTA
 ------------------------------------------------------------------------------
 Cycle:     69
  WF centre and spread    1  (  0.000000,  3.139711,  0.000000 )     2.71269537
  WF centre and spread    2  (  3.139711,  0.000000,  0.000000 )     2.71268226
  WF centre and spread    3  (  0.000001,  0.000000,  3.139711 )     2.71273508
  Sum of centres and spreads (  3.139712,  3.139711,  3.139711 )     8.13811271
 
     69    -0.119E-07     0.0000565883        8.1381150749       0.46  <-- CONV
        O_D=      0.0000000 O_OD=      0.0331242 O_TOT=      8.1381151 <-- SPRD
 Delta: O_D=  0.2051076E-09 O_OD= -0.1206331E-07 O_TOT= -0.1185820E-07 <-- DLTA
 ------------------------------------------------------------------------------
 Cycle:     70
  WF centre and spread    1  (  0.000000,  3.139711,  0.000000 )     2.71269537
  WF centre and spread    2  (  3.139711,  0.000000,  0.000000 )     2.71268226
  WF centre and spread    3  (  0.000001,  0.000000,  3.139711 )     2.71273508
  Sum of centres and spreads (  3.139712,  3.139711,  3.139711 )     8.13811271
 
     70    -0.205E-10     0.0000660472        8.1381150749       0.47  <-- CONV
        O_D=      0.0000000 O_OD=      0.0331242 O_TOT=      8.1381151 <-- SPRD
 Delta: O_D= -0.1025669E-11 O_OD= -0.1951954E-10 O_TOT= -0.2054712E-10 <-- DLTA
 ------------------------------------------------------------------------------
 Cycle:     71
  WF centre and spread    1  (  0.000000,  3.139711,  0.000000 )     2.71269536
  WF centre and spread    2  (  3.139711,  0.000000,  0.000000 )     2.71268225
  WF centre and spread    3  (  0.000001,  0.000000,  3.139711 )     2.71273508
  Sum of centres and spreads (  3.139712,  3.139711,  3.139711 )     8.13811269
 
     71    -0.229E-07     0.0000660250        8.1381150519       0.48  <-- CONV
        O_D=      0.0000000 O_OD=      0.0331242 O_TOT=      8.1381151 <-- SPRD
 Delta: O_D=  0.1121456E-08 O_OD= -0.2406430E-07 O_TOT= -0.2294284E-07 <-- DLTA
 ------------------------------------------------------------------------------
 Cycle:     72
  WF centre and spread    1  (  0.000000,  3.139711,  0.000000 )     2.71269534
  WF centre and spread    2  (  3.139711,  0.000000,  0.000000 )     2.71268223
  WF centre and spread    3  (  0.000001,  0.000000,  3.139711 )     2.71273509
  Sum of centres and spreads (  3.139712,  3.139711,  3.139711 )     8.13811266
 
     72    -0.272E-07     0.0000825705        8.1381150247       0.48  <-- CONV
        O_D=      0.0000000 O_OD=      0.0331242 O_TOT=      8.1381150 <-- SPRD
 Delta: O_D=  0.1616159E-07 O_OD= -0.4340552E-07 O_TOT= -0.2724393E-07 <-- DLTA
 ------------------------------------------------------------------------------
 Cycle:     73
  WF centre and spread    1  (  0.000000,  3.139711,  0.000000 )     2.71269532
  WF centre and spread    2  (  3.139711,  0.000000,  0.000000 )     2.71268220
  WF centre and spread    3  (  0.000001,  0.000000,  3.139711 )     2.71273506
  Sum of centres and spreads (  3.139712,  3.139711,  3.139711 )     8.13811258
 
     73    -0.746E-07     0.0002251144        8.1381149501       0.49  <-- CONV
        O_D=      0.0000000 O_OD=      0.0331241 O_TOT=      8.1381150 <-- SPRD
 Delta: O_D= -0.1739998E-07 O_OD= -0.5717319E-07 O_TOT= -0.7457318E-07 <-- DLTA
 ------------------------------------------------------------------------------
 Cycle:     74
  WF centre and spread    1  (  0.000000,  3.139711,  0.000000 )     2.71269532
  WF centre and spread    2  (  3.139711,  0.000000,  0.000000 )     2.71268220
  WF centre and spread    3  (  0.000001,  0.000000,  3.139711 )     2.71273506
  Sum of centres and spreads (  3.139712,  3.139711,  3.139711 )     8.13811258
 
     74    -0.612E-08     0.0000594048        8.1381149440       0.50  <-- CONV
        O_D=      0.0000000 O_OD=      0.0331241 O_TOT=      8.1381149 <-- SPRD
 Delta: O_D= -0.3011506E-09 O_OD= -0.5817719E-08 O_TOT= -0.6118871E-08 <-- DLTA
 ------------------------------------------------------------------------------
 Cycle:     75
  WF centre and spread    1  (  0.000000,  3.139711,  0.000000 )     2.71269532
  WF centre and spread    2  (  3.139711,  0.000000,  0.000000 )     2.71268220
  WF centre and spread    3  (  0.000001,  0.000000,  3.139711 )     2.71273506
  Sum of centres and spreads (  3.139712,  3.139711,  3.139711 )     8.13811258
 
     75    -0.991E-11     0.0000547254        8.1381149440       0.50  <-- CONV
        O_D=      0.0000000 O_OD=      0.0331241 O_TOT=      8.1381149 <-- SPRD
 Delta: O_D= -0.5385645E-12 O_OD= -0.9376402E-11 O_TOT= -0.9913848E-11 <-- DLTA
 ------------------------------------------------------------------------------
 Cycle:     76
  WF centre and spread    1  (  0.000000,  3.139711,  0.000000 )     2.71269531
  WF centre and spread    2  (  3.139711,  0.000000,  0.000000 )     2.71268219
  WF centre and spread    3  (  0.000001,  0.000000,  3.139711 )     2.71273507
  Sum of centres and spreads (  3.139712,  3.139711,  3.139711 )     8.13811256
 
     76    -0.166E-07     0.0000547207        8.1381149273       0.51  <-- CONV
        O_D=      0.0000000 O_OD=      0.0331241 O_TOT=      8.1381149 <-- SPRD
 Delta: O_D=  0.5878217E-08 O_OD= -0.2250572E-07 O_TOT= -0.1662750E-07 <-- DLTA
 ------------------------------------------------------------------------------
 Cycle:     77
  WF centre and spread    1  (  0.000000,  3.139711,  0.000000 )     2.71269530
  WF centre and spread    2  (  3.139711,  0.000000,  0.000000 )     2.71268218
  WF centre and spread    3  (  0.000001,  0.000000,  3.139711 )     2.71273506
  Sum of centres and spreads (  3.139712,  3.139711,  3.139711 )     8.13811255
 
     77    -0.107E-07     0.0001072379        8.1381149167       0.51  <-- CONV
        O_D=      0.0000000 O_OD=      0.0331241 O_TOT=      8.1381149 <-- SPRD
 Delta: O_D= -0.6345760E-08 O_OD= -0.4304880E-08 O_TOT= -0.1065064E-07 <-- DLTA
 ------------------------------------------------------------------------------
 Cycle:     78
  WF centre and spread    1  (  0.000000,  3.139711,  0.000000 )     2.71269530
  WF centre and spread    2  (  3.139711,  0.000000,  0.000000 )     2.71268218
  WF centre and spread    3  (  0.000001,  0.000000,  3.139711 )     2.71273506
  Sum of centres and spreads (  3.139712,  3.139711,  3.139711 )     8.13811255
 
     78    -0.665E-11     0.0000440881        8.1381149167       0.52  <-- CONV
        O_D=      0.0000000 O_OD=      0.0331241 O_TOT=      8.1381149 <-- SPRD
 Delta: O_D= -0.6672369E-12 O_OD= -0.5979960E-11 O_TOT= -0.6648904E-11 <-- DLTA
 ------------------------------------------------------------------------------
 Cycle:     79
  WF centre and spread    1  (  0.000000,  3.139711,  0.000000 )     2.71269530
  WF centre and spread    2  (  3.139711,  0.000000,  0.000000 )     2.71268218
  WF centre and spread    3  (  0.000001,  0.000000,  3.139711 )     2.71273506
  Sum of centres and spreads (  3.139712,  3.139711,  3.139711 )     8.13811254
 
     79    -0.100E-07     0.0000440780        8.1381149067       0.52  <-- CONV
        O_D=      0.0000000 O_OD=      0.0331241 O_TOT=      8.1381149 <-- SPRD
 Delta: O_D=  0.2263492E-08 O_OD= -0.1226049E-07 O_TOT= -0.9996992E-08 <-- DLTA
 ------------------------------------------------------------------------------
 Cycle:     80
  WF centre and spread    1  (  0.000000,  3.139711,  0.000000 )     2.71269527
  WF centre and spread    2  (  3.139711,  0.000000,  0.000000 )     2.71268216
  WF centre and spread    3  (  0.000001,  0.000000,  3.139711 )     2.71273507
  Sum of centres and spreads (  3.139712,  3.139711,  3.139711 )     8.13811250
 
     80    -0.435E-07     0.0000715038        8.1381148632       0.53  <-- CONV
        O_D=      0.0000000 O_OD=      0.0331240 O_TOT=      8.1381149 <-- SPRD
 Delta: O_D=  0.3477527E-07 O_OD= -0.7826137E-07 O_TOT= -0.4348610E-07 <-- DLTA
 ------------------------------------------------------------------------------
 Cycle:     81
  WF centre and spread    1  (  0.000000,  3.139711,  0.000000 )     2.71269526
  WF centre and spread    2  (  3.139711,  0.000000,  0.000000 )     2.71268213
  WF centre and spread    3  (  0.000001,  0.000000,  3.139711 )     2.71273505
  Sum of centres and spreads (  3.139712,  3.139711,  3.139711 )     8.13811245
 
     81    -0.504E-07     0.0002300965        8.1381148128       0.54  <-- CONV
        O_D=      0.0000000 O_OD=      0.0331240 O_TOT=      8.1381148 <-- SPRD
 Delta: O_D= -0.3269973E-07 O_OD= -0.1772514E-07 O_TOT= -0.5042487E-07 <-- DLTA
 ------------------------------------------------------------------------------
 Cycle:     82
  WF centre and spread    1  (  0.000000,  3.139711,  0.000000 )     2.71269526
  WF centre and spread    2  (  3.139711,  0.000000,  0.000000 )     2.71268213
  WF centre and spread    3  (  0.000001,  0.000000,  3.139711 )     2.71273505
  Sum of centres and spreads (  3.139712,  3.139711,  3.139711 )     8.13811243
 
     82    -0.145E-07     0.0000871595        8.1381147983       0.54  <-- CONV
        O_D=      0.0000000 O_OD=      0.0331240 O_TOT=      8.1381148 <-- SPRD
 Delta: O_D= -0.3185488E-08 O_OD= -0.1128862E-07 O_TOT= -0.1447411E-07 <-- DLTA
 ------------------------------------------------------------------------------
 Cycle:     83
  WF centre and spread    1  (  0.000000,  3.139711,  0.000000 )     2.71269526
  WF centre and spread    2  (  3.139711,  0.000000,  0.000000 )     2.71268213
  WF centre and spread    3  (  0.000001,  0.000000,  3.139711 )     2.71273505
  Sum of centres and spreads (  3.139712,  3.139711,  3.139711 )     8.13811243
 
     83    -0.111E-10     0.0000623730        8.1381147983       0.55  <-- CONV
        O_D=      0.0000000 O_OD=      0.0331240 O_TOT=      8.1381148 <-- SPRD
 Delta: O_D= -0.1819832E-11 O_OD= -0.9295474E-11 O_TOT= -0.1111644E-10 <-- DLTA
 ------------------------------------------------------------------------------
 Cycle:     84
  WF centre and spread    1  (  0.000000,  3.139711,  0.000000 )     2.71269525
  WF centre and spread    2  (  3.139711,  0.000000,  0.000000 )     2.71268212
  WF centre and spread    3  (  0.000001,  0.000000,  3.139711 )     2.71273505
  Sum of centres and spreads (  3.139712,  3.139711,  3.139711 )     8.13811242
 
     84    -0.114E-07     0.0000623501        8.1381147869       0.56  <-- CONV
        O_D=      0.0000000 O_OD=      0.0331240 O_TOT=      8.1381148 <-- SPRD
 Delta: O_D= -0.1404563E-09 O_OD= -0.1127035E-07 O_TOT= -0.1141080E-07 <-- DLTA
 ------------------------------------------------------------------------------
 Cycle:     85
  WF centre and spread    1  (  0.000000,  3.139711,  0.000000 )     2.71269525
  WF centre and spread    2  (  3.139711,  0.000000,  0.000000 )     2.71268210
  WF centre and spread    3  (  0.000001,  0.000000,  3.139711 )     2.71273505
  Sum of centres and spreads (  3.139712,  3.139711,  3.139711 )     8.13811241
 
     85    -0.139E-07     0.0000584991        8.1381147730       0.56  <-- CONV
        O_D=      0.0000000 O_OD=      0.0331239 O_TOT=      8.1381148 <-- SPRD
 Delta: O_D=  0.2781599E-08 O_OD= -0.1669884E-07 O_TOT= -0.1391724E-07 <-- DLTA
 ------------------------------------------------------------------------------
 Cycle:     86
  WF centre and spread    1  (  0.000000,  3.139711,  0.000000 )     2.71269521
  WF centre and spread    2  (  3.139711,  0.000000,  0.000000 )     2.71268206
  WF centre and spread    3  (  0.000001,  0.000000,  3.139711 )     2.71273507
  Sum of centres and spreads (  3.139712,  3.139711,  3.139711 )     8.13811234
 
     86    -0.680E-07     0.0000892459        8.1381147050       0.57  <-- CONV
        O_D=      0.0000000 O_OD=      0.0331238 O_TOT=      8.1381147 <-- SPRD
 Delta: O_D=  0.3605726E-07 O_OD= -0.1040104E-06 O_TOT= -0.6795315E-07 <-- DLTA
 ------------------------------------------------------------------------------
 Cycle:     87
  WF centre and spread    1  (  0.000000,  3.139711,  0.000000 )     2.71269519
  WF centre and spread    2  (  3.139711,  0.000000,  0.000000 )     2.71268203
  WF centre and spread    3  (  0.000001,  0.000000,  3.139711 )     2.71273505
  Sum of centres and spreads (  3.139712,  3.139711,  3.139711 )     8.13811228
 
     87    -0.626E-07     0.0002534272        8.1381146424       0.58  <-- CONV
        O_D=      0.0000000 O_OD=      0.0331238 O_TOT=      8.1381146 <-- SPRD
 Delta: O_D= -0.3640427E-07 O_OD= -0.2619760E-07 O_TOT= -0.6260187E-07 <-- DLTA
 ------------------------------------------------------------------------------
 Cycle:     88
  WF centre and spread    1  (  0.000000,  3.139711,  0.000000 )     2.71269519
  WF centre and spread    2  (  3.139711,  0.000000,  0.000000 )     2.71268203
  WF centre and spread    3  (  0.000001,  0.000000,  3.139711 )     2.71273504
  Sum of centres and spreads (  3.139712,  3.139711,  3.139711 )     8.13811227
 
     88    -0.110E-07     0.0000853899        8.1381146314       0.58  <-- CONV
        O_D=      0.0000000 O_OD=      0.0331238 O_TOT=      8.1381146 <-- SPRD
 Delta: O_D= -0.3097744E-08 O_OD= -0.7913253E-08 O_TOT= -0.1101099E-07 <-- DLTA
 ------------------------------------------------------------------------------
 Cycle:     89
  WF centre and spread    1  (  0.000000,  3.139711,  0.000000 )     2.71269519
  WF centre and spread    2  (  3.139711,  0.000000,  0.000000 )     2.71268203
  WF centre and spread    3  (  0.000001,  0.000000,  3.139711 )     2.71273504
  Sum of centres and spreads (  3.139712,  3.139711,  3.139711 )     8.13811227
 
     89    -0.852E-11     0.0000506068        8.1381146314       0.59  <-- CONV
        O_D=      0.0000000 O_OD=      0.0331238 O_TOT=      8.1381146 <-- SPRD
 Delta: O_D= -0.9284183E-12 O_OD= -0.7590074E-11 O_TOT= -0.8519407E-11 <-- DLTA
 ------------------------------------------------------------------------------
 Cycle:     90
  WF centre and spread    1  (  0.000000,  3.139711,  0.000000 )     2.71269518
  WF centre and spread    2  (  3.139711,  0.000000,  0.000000 )     2.71268203
  WF centre and spread    3  (  0.000001,  0.000000,  3.139711 )     2.71273504
  Sum of centres and spreads (  3.139712,  3.139711,  3.139711 )     8.13811225
 
     90    -0.110E-07     0.0000505924        8.1381146204       0.59  <-- CONV
        O_D=      0.0000000 O_OD=      0.0331238 O_TOT=      8.1381146 <-- SPRD
 Delta: O_D=  0.4780185E-08 O_OD= -0.1577381E-07 O_TOT= -0.1099363E-07 <-- DLTA
 ------------------------------------------------------------------------------
 Cycle:     91
  WF centre and spread    1  (  0.000000,  3.139711,  0.000000 )     2.71269518
  WF centre and spread    2  (  3.139711,  0.000000,  0.000000 )     2.71268203
  WF centre and spread    3  (  0.000001,  0.000000,  3.139711 )     2.71273504
  Sum of centres and spreads (  3.139712,  3.139711,  3.139711 )     8.13811224
 
     91    -0.100E-07     0.0001010720        8.1381146104       0.60  <-- CONV
        O_D=      0.0000000 O_OD=      0.0331238 O_TOT=      8.1381146 <-- SPRD
 Delta: O_D= -0.5096909E-08 O_OD= -0.4909883E-08 O_TOT= -0.1000679E-07 <-- DLTA
 ------------------------------------------------------------------------------
 Cycle:     92
  WF centre and spread    1  (  0.000000,  3.139711,  0.000000 )     2.71269518
  WF centre and spread    2  (  3.139711,  0.000000,  0.000000 )     2.71268203
  WF centre and spread    3  (  0.000001,  0.000000,  3.139711 )     2.71273504
  Sum of centres and spreads (  3.139712,  3.139711,  3.139711 )     8.13811224
 
     92    -0.666E-11     0.0000445410        8.1381146104       0.60  <-- CONV
        O_D=      0.0000000 O_OD=      0.0331238 O_TOT=      8.1381146 <-- SPRD
 Delta: O_D= -0.7877823E-12 O_OD= -0.5875453E-11 O_TOT= -0.6663115E-11 <-- DLTA
 ------------------------------------------------------------------------------
 Cycle:     93
  WF centre and spread    1  (  0.000000,  3.139711,  0.000000 )     2.71269517
  WF centre and spread    2  (  3.139711,  0.000000,  0.000000 )     2.71268202
  WF centre and spread    3  (  0.000001,  0.000000,  3.139711 )     2.71273504
  Sum of centres and spreads (  3.139712,  3.139711,  3.139711 )     8.13811223
 
     93    -0.976E-08     0.0000445298        8.1381146006       0.61  <-- CONV
        O_D=      0.0000000 O_OD=      0.0331238 O_TOT=      8.1381146 <-- SPRD
 Delta: O_D=  0.7391824E-08 O_OD= -0.1715139E-07 O_TOT= -0.9759569E-08 <-- DLTA
 ------------------------------------------------------------------------------
 Cycle:     94
  WF centre and spread    1  (  0.000000,  3.139711,  0.000000 )     2.71269517
  WF centre and spread    2  (  3.139711,  0.000000,  0.000000 )     2.71268202
  WF centre and spread    3  (  0.000001,  0.000000,  3.139711 )     2.71273503
  Sum of centres and spreads (  3.139712,  3.139711,  3.139711 )     8.13811222
 
     94    -0.103E-07     0.0001093470        8.1381145903       0.62  <-- CONV
        O_D=      0.0000000 O_OD=      0.0331238 O_TOT=      8.1381146 <-- SPRD
 Delta: O_D= -0.7645263E-08 O_OD= -0.2645620E-08 O_TOT= -0.1029088E-07 <-- DLTA
 ------------------------------------------------------------------------------
 Cycle:     95
  WF centre and spread    1  (  0.000000,  3.139711,  0.000000 )     2.71269517
  WF centre and spread    2  (  3.139711,  0.000000,  0.000000 )     2.71268202
  WF centre and spread    3  (  0.000001,  0.000000,  3.139711 )     2.71273503
  Sum of centres and spreads (  3.139712,  3.139711,  3.139711 )     8.13811222
 
     95    -0.574E-11     0.0000405274        8.1381145903       0.62  <-- CONV
        O_D=      0.0000000 O_OD=      0.0331238 O_TOT=      8.1381146 <-- SPRD
 Delta: O_D= -0.8112859E-13 O_OD= -0.5657919E-11 O_TOT= -0.5737633E-11 <-- DLTA
 ------------------------------------------------------------------------------
 Cycle:     96
  WF centre and spread    1  (  0.000000,  3.139711,  0.000000 )     2.71269517
  WF centre and spread    2  (  3.139711,  0.000000,  0.000000 )     2.71268202
  WF centre and spread    3  (  0.000001,  0.000000,  3.139711 )     2.71273503
  Sum of centres and spreads (  3.139712,  3.139711,  3.139711 )     8.13811222
 
     96    -0.114E-10     0.0000405261        8.1381145903       0.63  <-- CONV
        O_D=      0.0000000 O_OD=      0.0331238 O_TOT=      8.1381146 <-- SPRD
 Delta: O_D= -0.8255067E-12 O_OD= -0.1062148E-10 O_TOT= -0.1144684E-10 <-- DLTA
 ------------------------------------------------------------------------------
 Cycle:     97
  WF centre and spread    1  (  0.000000,  3.139711,  0.000000 )     2.71269516
  WF centre and spread    2  (  3.139711,  0.000000,  0.000000 )     2.71268201
  WF centre and spread    3  (  0.000001,  0.000000,  3.139711 )     2.71273503
  Sum of centres and spreads (  3.139712,  3.139711,  3.139711 )     8.13811221
 
[...]
  Sum of centres and spreads (  3.139712,  3.139711,  3.139711 )     8.13810380
 
    473    -0.334E-07     0.0000694831        8.1381061705       3.06  <-- CONV
        O_D=      0.0000000 O_OD=      0.0331153 O_TOT=      8.1381062 <-- SPRD
 Delta: O_D=  0.5538902E-08 O_OD= -0.3893932E-07 O_TOT= -0.3340041E-07 <-- DLTA
 ------------------------------------------------------------------------------
 Cycle:    474
  WF centre and spread    1  (  0.000000,  3.139711,  0.000000 )     2.71269177
  WF centre and spread    2  (  3.139711,  0.000000,  0.000000 )     2.71267773
  WF centre and spread    3  (  0.000001,  0.000000,  3.139711 )     2.71273429
  Sum of centres and spreads (  3.139712,  3.139711,  3.139711 )     8.13810378
 
    474    -0.196E-07     0.0001288327        8.1381061508       3.06  <-- CONV
        O_D=      0.0000000 O_OD=      0.0331153 O_TOT=      8.1381062 <-- SPRD
 Delta: O_D= -0.6911723E-08 O_OD= -0.1273227E-07 O_TOT= -0.1964399E-07 <-- DLTA
 ------------------------------------------------------------------------------
 Cycle:    475
  WF centre and spread    1  (  0.000000,  3.139711,  0.000000 )     2.71269176
  WF centre and spread    2  (  3.139711,  0.000000,  0.000000 )     2.71267773
  WF centre and spread    3  (  0.000001,  0.000000,  3.139711 )     2.71273429
  Sum of centres and spreads (  3.139712,  3.139711,  3.139711 )     8.13810378
 
    475    -0.809E-08     0.0000549853        8.1381061427       3.07  <-- CONV
        O_D=      0.0000000 O_OD=      0.0331153 O_TOT=      8.1381061 <-- SPRD
 Delta: O_D= -0.2463328E-10 O_OD= -0.8062201E-08 O_TOT= -0.8086834E-08 <-- DLTA
 ------------------------------------------------------------------------------
 Cycle:    476
  WF centre and spread    1  (  0.000000,  3.139711,  0.000000 )     2.71269174
  WF centre and spread    2  (  3.139711,  0.000000,  0.000000 )     2.71267773
  WF centre and spread    3  (  0.000001,  0.000000,  3.139711 )     2.71273428
  Sum of centres and spreads (  3.139712,  3.139711,  3.139711 )     8.13810376
 
    476    -0.207E-07     0.0000485748        8.1381061221       3.08  <-- CONV
        O_D=      0.0000000 O_OD=      0.0331153 O_TOT=      8.1381061 <-- SPRD
 Delta: O_D=  0.1212619E-08 O_OD= -0.2189133E-07 O_TOT= -0.2067870E-07 <-- DLTA
 ------------------------------------------------------------------------------
 Cycle:    477
  WF centre and spread    1  (  0.000000,  3.139711,  0.000000 )     2.71269172
  WF centre and spread    2  (  3.139711,  0.000000,  0.000000 )     2.71267771
  WF centre and spread    3  (  0.000001,  0.000000,  3.139711 )     2.71273430
  Sum of centres and spreads (  3.139712,  3.139711,  3.139711 )     8.13810373
 
    477    -0.283E-07     0.0000657939        8.1381060938       3.08  <-- CONV
        O_D=      0.0000001 O_OD=      0.0331152 O_TOT=      8.1381061 <-- SPRD
 Delta: O_D=  0.5280540E-07 O_OD= -0.8106232E-07 O_TOT= -0.2825692E-07 <-- DLTA
 ------------------------------------------------------------------------------
 Cycle:    478
  WF centre and spread    1  (  0.000000,  3.139711,  0.000000 )     2.71269167
  WF centre and spread    2  (  3.139711,  0.000000,  0.000000 )     2.71267765
  WF centre and spread    3  (  0.000001,  0.000000,  3.139711 )     2.71273427
  Sum of centres and spreads (  3.139712,  3.139711,  3.139711 )     8.13810360
 
    478    -0.130E-06     0.0003626175        8.1381059638       3.09  <-- CONV
        O_D=      0.0000000 O_OD=      0.0331151 O_TOT=      8.1381060 <-- SPRD
 Delta: O_D= -0.5168415E-07 O_OD= -0.7832110E-07 O_TOT= -0.1300053E-06 <-- DLTA
 ------------------------------------------------------------------------------
 Cycle:    479
  WF centre and spread    1  (  0.000000,  3.139711,  0.000000 )     2.71269167
  WF centre and spread    2  (  3.139711,  0.000000,  0.000000 )     2.71267763
  WF centre and spread    3  (  0.000001,  0.000000,  3.139711 )     2.71273427
  Sum of centres and spreads (  3.139712,  3.139711,  3.139711 )     8.13810358
 
    479    -0.187E-07     0.0001006984        8.1381059451       3.10  <-- CONV
        O_D=      0.0000000 O_OD=      0.0331151 O_TOT=      8.1381059 <-- SPRD
 Delta: O_D= -0.1753169E-08 O_OD= -0.1699548E-07 O_TOT= -0.1874865E-07 <-- DLTA
 ------------------------------------------------------------------------------
 Cycle:    480
  WF centre and spread    1  (  0.000000,  3.139711,  0.000000 )     2.71269169
  WF centre and spread    2  (  3.139711,  0.000000,  0.000000 )     2.71267761
  WF centre and spread    3  (  0.000001,  0.000000,  3.139711 )     2.71273428
  Sum of centres and spreads (  3.139712,  3.139711,  3.139711 )     8.13810357
 
    480    -0.640E-08     0.0000618827        8.1381059387       3.11  <-- CONV
        O_D=      0.0000000 O_OD=      0.0331151 O_TOT=      8.1381059 <-- SPRD
 Delta: O_D=  0.6397322E-08 O_OD= -0.1279632E-07 O_TOT= -0.6398999E-08 <-- DLTA
 ------------------------------------------------------------------------------
 Cycle:    481
  WF centre and spread    1  (  0.000000,  3.139711,  0.000000 )     2.71269168
  WF centre and spread    2  (  3.139711,  0.000000,  0.000000 )     2.71267761
  WF centre and spread    3  (  0.000001,  0.000000,  3.139711 )     2.71273427
  Sum of centres and spreads (  3.139712,  3.139711,  3.139711 )     8.13810355
 
    481    -0.178E-07     0.0001193771        8.1381059208       3.11  <-- CONV
        O_D=      0.0000000 O_OD=      0.0331151 O_TOT=      8.1381059 <-- SPRD
 Delta: O_D= -0.6180117E-08 O_OD= -0.1165887E-07 O_TOT= -0.1783898E-07 <-- DLTA
 ------------------------------------------------------------------------------
 Cycle:    482
  WF centre and spread    1  (  0.000000,  3.139711,  0.000000 )     2.71269166
  WF centre and spread    2  (  3.139711,  0.000000,  0.000000 )     2.71267762
  WF centre and spread    3  (  0.000001,  0.000000,  3.139711 )     2.71273427
  Sum of centres and spreads (  3.139712,  3.139711,  3.139711 )     8.13810354
 
    482    -0.155E-07     0.0000659893        8.1381059054       3.12  <-- CONV
        O_D=      0.0000000 O_OD=      0.0331151 O_TOT=      8.1381059 <-- SPRD
 Delta: O_D= -0.4861382E-09 O_OD= -0.1496474E-07 O_TOT= -0.1545087E-07 <-- DLTA
 ------------------------------------------------------------------------------
 Cycle:    483
  WF centre and spread    1  (  0.000000,  3.139711,  0.000000 )     2.71269165
  WF centre and spread    2  (  3.139711,  0.000000,  0.000000 )     2.71267761
  WF centre and spread    3  (  0.000001,  0.000000,  3.139711 )     2.71273426
  Sum of centres and spreads (  3.139712,  3.139711,  3.139711 )     8.13810353
 
    483    -0.122E-07     0.0000561875        8.1381058932       3.13  <-- CONV
        O_D=      0.0000000 O_OD=      0.0331151 O_TOT=      8.1381059 <-- SPRD
 Delta: O_D=  0.3064822E-08 O_OD= -0.1523239E-07 O_TOT= -0.1216757E-07 <-- DLTA
 ------------------------------------------------------------------------------
 Cycle:    484
  WF centre and spread    1  (  0.000000,  3.139711,  0.000000 )     2.71269165
  WF centre and spread    2  (  3.139711,  0.000000,  0.000000 )     2.71267761
  WF centre and spread    3  (  0.000001,  0.000000,  3.139711 )     2.71273426
  Sum of centres and spreads (  3.139712,  3.139711,  3.139711 )     8.13810353
 
    484    -0.301E-10     0.0000897787        8.1381058932       3.13  <-- CONV
        O_D=      0.0000000 O_OD=      0.0331151 O_TOT=      8.1381059 <-- SPRD
 Delta: O_D=  0.1704881E-12 O_OD= -0.3027558E-10 O_TOT= -0.3010570E-10 <-- DLTA
 ------------------------------------------------------------------------------
 Cycle:    485
  WF centre and spread    1  (  0.000000,  3.139711,  0.000000 )     2.71269164
  WF centre and spread    2  (  3.139711,  0.000000,  0.000000 )     2.71267758
  WF centre and spread    3  (  0.000001,  0.000000,  3.139711 )     2.71273426
  Sum of centres and spreads (  3.139712,  3.139711,  3.139711 )     8.13810348
 
    485    -0.476E-07     0.0000897819        8.1381058456       3.14  <-- CONV
        O_D=      0.0000000 O_OD=      0.0331150 O_TOT=      8.1381058 <-- SPRD
 Delta: O_D=  0.6261280E-08 O_OD= -0.5383082E-07 O_TOT= -0.4756953E-07 <-- DLTA
 ------------------------------------------------------------------------------
 Cycle:    486
  WF centre and spread    1  (  0.000000,  3.139711,  0.000000 )     2.71269162
  WF centre and spread    2  (  3.139711,  0.000000,  0.000000 )     2.71267743
  WF centre and spread    3  (  0.000001,  0.000000,  3.139711 )     2.71273431
  Sum of centres and spreads (  3.139712,  3.139711,  3.139711 )     8.13810336
 
    486    -0.124E-06     0.0001384886        8.1381057220       3.14  <-- CONV
        O_D=      0.0000001 O_OD=      0.0331148 O_TOT=      8.1381057 <-- SPRD
 Delta: O_D=  0.9928413E-07 O_OD= -0.2228523E-06 O_TOT= -0.1235682E-06 <-- DLTA
 ------------------------------------------------------------------------------
 Cycle:    487
  WF centre and spread    1  (  0.000000,  3.139711,  0.000000 )     2.71269155
  WF centre and spread    2  (  3.139711,  0.000000,  0.000000 )     2.71267739
  WF centre and spread    3  (  0.000001,  0.000000,  3.139711 )     2.71273425
  Sum of centres and spreads (  3.139712,  3.139711,  3.139711 )     8.13810319
 
    487    -0.166E-06     0.0003948765        8.1381055557       3.15  <-- CONV
        O_D=      0.0000000 O_OD=      0.0331147 O_TOT=      8.1381056 <-- SPRD
 Delta: O_D= -0.1011021E-06 O_OD= -0.6518847E-07 O_TOT= -0.1662906E-06 <-- DLTA
 ------------------------------------------------------------------------------
 Cycle:    488
  WF centre and spread    1  (  0.000000,  3.139711,  0.000000 )     2.71269150
  WF centre and spread    2  (  3.139711,  0.000000,  0.000000 )     2.71267741
  WF centre and spread    3  (  0.000001,  0.000000,  3.139711 )     2.71273423
  Sum of centres and spreads (  3.139712,  3.139711,  3.139711 )     8.13810314
 
    488    -0.462E-07     0.0001338242        8.1381055096       3.16  <-- CONV
        O_D=      0.0000000 O_OD=      0.0331147 O_TOT=      8.1381055 <-- SPRD
 Delta: O_D= -0.6669819E-08 O_OD= -0.3950086E-07 O_TOT= -0.4617068E-07 <-- DLTA
 ------------------------------------------------------------------------------
 Cycle:    489
  WF centre and spread    1  (  0.000000,  3.139711,  0.000000 )     2.71269150
  WF centre and spread    2  (  3.139711,  0.000000,  0.000000 )     2.71267741
  WF centre and spread    3  (  0.000001,  0.000000,  3.139711 )     2.71273423
  Sum of centres and spreads (  3.139712,  3.139711,  3.139711 )     8.13810314
 
    489    -0.743E-08     0.0000788393        8.1381055021       3.16  <-- CONV
        O_D=      0.0000000 O_OD=      0.0331147 O_TOT=      8.1381055 <-- SPRD
 Delta: O_D= -0.1138579E-08 O_OD= -0.6294715E-08 O_TOT= -0.7433295E-08 <-- DLTA
 ------------------------------------------------------------------------------
 Cycle:    490
  WF centre and spread    1  (  0.000000,  3.139711,  0.000000 )     2.71269150
  WF centre and spread    2  (  3.139711,  0.000000,  0.000000 )     2.71267741
  WF centre and spread    3  (  0.000001,  0.000000,  3.139711 )     2.71273423
  Sum of centres and spreads (  3.139712,  3.139711,  3.139711 )     8.13810314
 
    490    -0.832E-11     0.0000491796        8.1381055021       3.17  <-- CONV
        O_D=      0.0000000 O_OD=      0.0331147 O_TOT=      8.1381055 <-- SPRD
 Delta: O_D= -0.1016594E-12 O_OD= -0.8219710E-11 O_TOT= -0.8320455E-11 <-- DLTA
 ------------------------------------------------------------------------------
 Cycle:    491
  WF centre and spread    1  (  0.000000,  3.139711,  0.000000 )     2.71269150
  WF centre and spread    2  (  3.139711,  0.000000,  0.000000 )     2.71267741
  WF centre and spread    3  (  0.000001,  0.000000,  3.139711 )     2.71273423
  Sum of centres and spreads (  3.139712,  3.139711,  3.139711 )     8.13810314
 
    491    -0.167E-10     0.0000491795        8.1381055021       3.17  <-- CONV
        O_D=      0.0000000 O_OD=      0.0331147 O_TOT=      8.1381055 <-- SPRD
 Delta: O_D= -0.1264099E-11 O_OD= -0.1546291E-10 O_TOT= -0.1672795E-10 <-- DLTA
 ------------------------------------------------------------------------------
 Cycle:    492
  WF centre and spread    1  (  0.000000,  3.139711,  0.000000 )     2.71269150
  WF centre and spread    2  (  3.139711,  0.000000,  0.000000 )     2.71267739
  WF centre and spread    3  (  0.000001,  0.000000,  3.139711 )     2.71273423
  Sum of centres and spreads (  3.139712,  3.139711,  3.139711 )     8.13810312
 
    492    -0.175E-07     0.0000491539        8.1381054846       3.18  <-- CONV
        O_D=      0.0000000 O_OD=      0.0331146 O_TOT=      8.1381055 <-- SPRD
 Delta: O_D=  0.2999540E-08 O_OD= -0.2052058E-07 O_TOT= -0.1752104E-07 <-- DLTA
 ------------------------------------------------------------------------------
 Cycle:    493
  WF centre and spread    1  (  0.000000,  3.139711,  0.000000 )     2.71269149
  WF centre and spread    2  (  3.139711,  0.000000,  0.000000 )     2.71267739
  WF centre and spread    3  (  0.000001,  0.000000,  3.139711 )     2.71273423
  Sum of centres and spreads (  3.139712,  3.139711,  3.139711 )     8.13810311
 
    493    -0.908E-08     0.0000959995        8.1381054755       3.19  <-- CONV
        O_D=      0.0000000 O_OD=      0.0331146 O_TOT=      8.1381055 <-- SPRD
 Delta: O_D= -0.3267044E-08 O_OD= -0.5811579E-08 O_TOT= -0.9078622E-08 <-- DLTA
 ------------------------------------------------------------------------------
 Cycle:    494
  WF centre and spread    1  (  0.000000,  3.139711,  0.000000 )     2.71269149
  WF centre and spread    2  (  3.139711,  0.000000,  0.000000 )     2.71267739
  WF centre and spread    3  (  0.000001,  0.000000,  3.139711 )     2.71273423
  Sum of centres and spreads (  3.139712,  3.139711,  3.139711 )     8.13810311
 
    494    -0.683E-11     0.0000444794        8.1381054755       3.19  <-- CONV
        O_D=      0.0000000 O_OD=      0.0331146 O_TOT=      8.1381055 <-- SPRD
 Delta: O_D= -0.1730529E-12 O_OD= -0.6660221E-11 O_TOT= -0.6833645E-11 <-- DLTA
 ------------------------------------------------------------------------------
 Cycle:    495
  WF centre and spread    1  (  0.000000,  3.139711,  0.000000 )     2.71269148
  WF centre and spread    2  (  3.139711,  0.000000,  0.000000 )     2.71267739
  WF centre and spread    3  (  0.000001,  0.000000,  3.139711 )     2.71273423
  Sum of centres and spreads (  3.139712,  3.139711,  3.139711 )     8.13810309
 
    495    -0.160E-07     0.0000444754        8.1381054596       3.20  <-- CONV
        O_D=      0.0000000 O_OD=      0.0331146 O_TOT=      8.1381055 <-- SPRD
 Delta: O_D=  0.1385321E-07 O_OD= -0.2980712E-07 O_TOT= -0.1595391E-07 <-- DLTA
 ------------------------------------------------------------------------------
 Cycle:    496
  WF centre and spread    1  (  0.000000,  3.139711,  0.000000 )     2.71269147
  WF centre and spread    2  (  3.139711,  0.000000,  0.000000 )     2.71267737
  WF centre and spread    3  (  0.000001,  0.000000,  3.139711 )     2.71273422
  Sum of centres and spreads (  3.139712,  3.139711,  3.139711 )     8.13810307
 
    496    -0.284E-07     0.0001837079        8.1381054311       3.20  <-- CONV
        O_D=      0.0000000 O_OD=      0.0331146 O_TOT=      8.1381054 <-- SPRD
 Delta: O_D= -0.1360992E-07 O_OD= -0.1482319E-07 O_TOT= -0.2843311E-07 <-- DLTA
 ------------------------------------------------------------------------------
 Cycle:    497
  WF centre and spread    1  (  0.000000,  3.139711,  0.000000 )     2.71269147
  WF centre and spread    2  (  3.139711,  0.000000,  0.000000 )     2.71267737
  WF centre and spread    3  (  0.000001,  0.000000,  3.139711 )     2.71273422
  Sum of centres and spreads (  3.139712,  3.139711,  3.139711 )     8.13810307
 
    497    -0.738E-11     0.0000460842        8.1381054311       3.21  <-- CONV
        O_D=      0.0000000 O_OD=      0.0331146 O_TOT=      8.1381054 <-- SPRD
 Delta: O_D= -0.6023944E-12 O_OD= -0.6773325E-11 O_TOT= -0.7375434E-11 <-- DLTA
 ------------------------------------------------------------------------------
 Cycle:    498
  WF centre and spread    1  (  0.000000,  3.139711,  0.000000 )     2.71269148
  WF centre and spread    2  (  3.139711,  0.000000,  0.000000 )     2.71267734
  WF centre and spread    3  (  0.000001,  0.000000,  3.139711 )     2.71273423
  Sum of centres and spreads (  3.139712,  3.139711,  3.139711 )     8.13810305
 
    498    -0.117E-07     0.0000460761        8.1381054194       3.21  <-- CONV
        O_D=      0.0000000 O_OD=      0.0331146 O_TOT=      8.1381054 <-- SPRD
 Delta: O_D=  0.1582600E-07 O_OD= -0.2752446E-07 O_TOT= -0.1169846E-07 <-- DLTA
 ------------------------------------------------------------------------------
 Cycle:    499
  WF centre and spread    1  (  0.000000,  3.139711,  0.000000 )     2.71269147
  WF centre and spread    2  (  3.139711,  0.000000,  0.000000 )     2.71267734
  WF centre and spread    3  (  0.000001,  0.000000,  3.139711 )     2.71273423
  Sum of centres and spreads (  3.139712,  3.139711,  3.139711 )     8.13810303
 
    499    -0.258E-07     0.0001569624        8.1381053936       3.22  <-- CONV
        O_D=      0.0000000 O_OD=      0.0331146 O_TOT=      8.1381054 <-- SPRD
 Delta: O_D= -0.1345160E-07 O_OD= -0.1231520E-07 O_TOT= -0.2576679E-07 <-- DLTA
 ------------------------------------------------------------------------------
 Cycle:    500
  WF centre and spread    1  (  0.000000,  3.139711,  0.000000 )     2.71269145
  WF centre and spread    2  (  3.139711,  0.000000,  0.000000 )     2.71267735
  WF centre and spread    3  (  0.000001,  0.000000,  3.139711 )     2.71273422
  Sum of centres and spreads (  3.139712,  3.139711,  3.139711 )     8.13810301
 
    500    -0.174E-07     0.0000727633        8.1381053762       3.23  <-- CONV
        O_D=      0.0000000 O_OD=      0.0331145 O_TOT=      8.1381054 <-- SPRD
 Delta: O_D= -0.1127937E-08 O_OD= -0.1629636E-07 O_TOT= -0.1742430E-07 <-- DLTA
 ------------------------------------------------------------------------------

 Writing checkpoint file mp-2758.chk... done

 Final State
  WF centre and spread    1  (  0.000000,  3.139711,  0.000000 )     2.71269145
  WF centre and spread    2  (  3.139711,  0.000000,  0.000000 )     2.71267735
  WF centre and spread    3  (  0.000001,  0.000000,  3.139711 )     2.71273422
  Sum of centres and spreads (  3.139712,  3.139711,  3.139711 )     8.13810301
 
         Spreads (Ang^2)       Omega I      =     8.104990833
        ================       Omega D      =     0.000000002
                               Omega OD     =     0.033114541
    Final Spread (Ang^2)       Omega Total  =     8.138105376
 ------------------------------------------------------------------------------
 Time for wannierise            3.225 (sec)

 Writing checkpoint file mp-2758.chk... done

 Time for plotting              0.000 (sec)
 Total Execution Time           4.510 (sec)

 *===========================================================================*
 |                             TIMING INFORMATION                            |
 *===========================================================================*
 |    Tag                                                Ncalls      Time (s)|
 |---------------------------------------------------------------------------|
 |kmesh: get                                        :         1         1.040|
 |overlap: allocate                                 :         1         0.002|
 |overlap: read                                     :         1         0.135|
 |wann: main                                        :         1         3.225|
 |plot: main                                        :         1         0.000|
 *---------------------------------------------------------------------------*
 
 All done: wannier90 exiting
