 vasp.5.4.4.18Apr17-6-g9f103f2a35 (build Aug 24 2017 11:22:49) complex          
  
 executed on             LinuxIFC date 2023.12.25  13:07:11
 running on    8 total cores
 distrk:  each k-point on    8 cores,    1 groups
 distr:  one band on NCORES_PER_BAND=   1 cores,    8 groups


--------------------------------------------------------------------------------------------------------


 INCAR:
 POTCAR:    PAW_PBE Sn_d 06Sep2000                
 POTCAR:    PAW_PBE O 08Apr2002                   

 ----------------------------------------------------------------------------- 
|                                                                             |
|           W    W    AA    RRRRR   N    N  II  N    N   GGGG   !!!           |
|           W    W   A  A   R    R  NN   N  II  NN   N  G    G  !!!           |
|           W    W  A    A  R    R  N N  N  II  N N  N  G       !!!           |
|           W WW W  AAAAAA  RRRRR   N  N N  II  N  N N  G  GGG   !            |
|           WW  WW  A    A  R   R   N   NN  II  N   NN  G    G                |
|           W    W  A    A  R    R  N    N  II  N    N   GGGG   !!!           |
|                                                                             |
|      For optimal performance we recommend to set                            |
|        NCORE= 4 - approx SQRT( number of cores)                             |
|      NCORE specifies how many cores store one orbital (NPAR=cpu/NCORE).     |
|      This setting can  greatly improve the performance of VASP for DFT.     |
|      The default,   NCORE=1            might be grossly inefficient         |
|      on modern multi-core architectures or massively parallel machines.     |
|      Do your own testing !!!!                                               |
|      Unfortunately you need to use the default for GW and RPA calculations. |
|      (for HF NCORE is supported but not extensively tested yet)             |
|                                                                             |
 ----------------------------------------------------------------------------- 

 POTCAR:    PAW_PBE Sn_d 06Sep2000                
   VRHFIN =Sn: s2p2                                                             
   LEXCH  = PE                                                                  
   EATOM  =  1893.1092 eV,  139.1396 Ry                                         
                                                                                
   TITEL  = PAW_PBE Sn_d 06Sep2000                                              
   LULTRA =        F    use ultrasoft PP ?                                      
   IUNSCR =        1    unscreen: 0-lin 1-nonlin 2-no                           
   RPACOR =    2.300    partial core radius                                     
   POMASS =  118.710; ZVAL   =   14.000    mass and valenz                      
   RCORE  =    2.500    outmost cutoff radius                                   
   RWIGS  =    2.960; RWIGS  =    1.566    wigner-seitz radius (au A)           
   ENMAX  =  241.083; ENMIN  =  180.812 eV                                      
   ICORE  =        3    local potential                                         
   LCOR   =        T    correct aug charges                                     
   LPAW   =        T    paw PP                                                  
   EAUG   =  439.825                                                            
   DEXC   =    0.000                                                            
   RMAX   =    2.560    core radius for proj-oper                               
   RAUG   =    1.300    factor for augmentation sphere                          
   RDEP   =    2.659    radius for radial grids                                 
   RDEPT  =    2.046    core radius for aug-charge                              
                                                                                
   Atomic configuration                                                         
   12 entries                                                                   
     n  l   j            E        occ.                                          
     1  0  0.50    -29007.2859   2.0000                                         
     2  0  0.50     -4378.8056   2.0000                                         
     2  1  1.50     -3930.4293   6.0000                                         
     3  0  0.50      -845.0264   2.0000                                         
     3  1  1.50      -698.5725   6.0000                                         
     3  2  2.50      -473.2839  10.0000                                         
     4  0  0.50      -133.9036   2.0000                                         
     4  1  1.50       -89.6752   6.0000                                         
     4  2  2.50       -25.8375  10.0000                                         
     5  0  0.50       -10.5484   2.0000                                         
     5  1  0.50        -3.6940   2.0000                                         
     4  3  2.50        -2.7416   0.0000                                         
   Description                                                                  
     l       E           TYP  RCUT    TYP  RCUT                                 
     2    -25.8374624     23  2.500                                             
     2     -5.4423304     23  2.500                                             
     0    -10.5483727     23  2.500                                             
     0     13.6058260     23  2.500                                             
     1     -3.6939829     23  2.500                                             
     1      1.9821976     23  2.500                                             
     3     -1.3605826      7  2.500                                             
  local pseudopotential read in
  partial core-charges read in
  partial kinetic energy density read in
  atomic valenz-charges read in
  non local Contribution for L=           2  read in
    real space projection operators read in
  non local Contribution for L=           2  read in
    real space projection operators read in
  non local Contribution for L=           0  read in
    real space projection operators read in
  non local Contribution for L=           0  read in
    real space projection operators read in
  non local Contribution for L=           1  read in
    real space projection operators read in
  non local Contribution for L=           1  read in
    real space projection operators read in
    PAW grid and wavefunctions read in
 
   number of l-projection  operators is LMAX  =           6
   number of lm-projection operators is LMMAX =          18
 
 POTCAR:    PAW_PBE O 08Apr2002                   
   VRHFIN =O: s2p4                                                              
   LEXCH  = PE                                                                  
   EATOM  =   432.3788 eV,   31.7789 Ry                                         
                                                                                
   TITEL  = PAW_PBE O 08Apr2002                                                 
   LULTRA =        F    use ultrasoft PP ?                                      
   IUNSCR =        1    unscreen: 0-lin 1-nonlin 2-no                           
   RPACOR =    1.200    partial core radius                                     
   POMASS =   16.000; ZVAL   =    6.000    mass and valenz                      
   RCORE  =    1.520    outmost cutoff radius                                   
   RWIGS  =    1.550; RWIGS  =    0.820    wigner-seitz radius (au A)           
   ENMAX  =  400.000; ENMIN  =  300.000 eV                                      
   ICORE  =        2    local potential                                         
   LCOR   =        T    correct aug charges                                     
   LPAW   =        T    paw PP                                                  
   EAUG   =  605.392                                                            
   DEXC   =    0.000                                                            
   RMAX   =    1.553    core radius for proj-oper                               
   RAUG   =    1.300    factor for augmentation sphere                          
   RDEP   =    1.550    radius for radial grids                                 
   RDEPT  =    1.329    core radius for aug-charge                              
                                                                                
   Atomic configuration                                                         
    4 entries                                                                   
     n  l   j            E        occ.                                          
     1  0  0.50      -514.6923   2.0000                                         
     2  0  0.50       -23.9615   2.0000                                         
     2  1  0.50        -9.0305   4.0000                                         
     3  2  1.50        -9.5241   0.0000                                         
   Description                                                                  
     l       E           TYP  RCUT    TYP  RCUT                                 
     0    -23.9615318     23  1.200                                             
     0     -9.5240782     23  1.200                                             
     1     -9.0304911     23  1.520                                             
     1      8.1634956     23  1.520                                             
     2     -9.5240782      7  1.500                                             
  local pseudopotential read in
  partial core-charges read in
  partial kinetic energy density read in
  kinetic energy density of atom read in
  atomic valenz-charges read in
  non local Contribution for L=           0  read in
    real space projection operators read in
  non local Contribution for L=           0  read in
    real space projection operators read in
  non local Contribution for L=           1  read in
    real space projection operators read in
  non local Contribution for L=           1  read in
    real space projection operators read in
    PAW grid and wavefunctions read in
 
   number of l-projection  operators is LMAX  =           4
   number of lm-projection operators is LMMAX =           8
 
  PAW_PBE Sn_d 06Sep2000                :
 energy of atom  1       EATOM=-1893.1092
 kinetic energy error for atom=    0.0026 (will be added to EATOM!!)
  PAW_PBE O 08Apr2002                   :
 energy of atom  2       EATOM= -432.3788
 kinetic energy error for atom=    0.0208 (will be added to EATOM!!)
 
 
 POSCAR: Sn2 O4                                  
  positions in direct lattice
  No initial velocities read in
 exchange correlation table for  LEXCH =        8
   RHO(1)=    0.500       N(1)  =     2000
   RHO(2)=  100.500       N(2)  =     4000
 


--------------------------------------------------------------------------------------------------------


 ion  position               nearest neighbor table
   1  0.500  0.500  0.500-   3 2.06   4 2.06   6 2.07   5 2.07   6 2.07   5 2.07   2 3.73   2 3.73
                             2 3.73   2 3.73   2 3.73   2 3.73   2 3.73   2 3.73
   2  0.000  0.000  0.000-   6 2.06   5 2.06   3 2.07   4 2.07   3 2.07   4 2.07   1 3.73   1 3.73
                             1 3.73   1 3.73   1 3.73   1 3.73   1 3.73   1 3.73
   3  0.806  0.194  0.500-   1 2.06   2 2.07   2 2.07
   4  0.194  0.806  0.500-   1 2.06   2 2.07   2 2.07
   5  0.306  0.306  0.000-   2 2.06   1 2.07   1 2.07
   6  0.694  0.694  0.000-   2 2.06   1 2.07   1 2.07
 
  LATTYP: Found a simple tetragonal cell.
 ALAT       =     4.7648176790
 C/A-ratio  =     0.6731631176
  
  Lattice vectors:
  
 A1 = (   4.7648176790,   0.0000000000,   0.0000000000)
 A2 = (   0.0000000000,   4.7648176790,   0.0000000000)
 A3 = (   0.0000000000,   0.0000000000,   3.2074995236)


Analysis of symmetry for initial positions (statically):
=====================================================================
 Subroutine PRICEL returns:
 Original cell was already a primitive cell.
 

 Routine SETGRP: Setting up the symmetry group for a 
 simple tetragonal supercell.


 Subroutine GETGRP returns: Found  2 space group operations
 (whereof  2 operations were pure point group operations)
 out of a pool of 16 trial point group operations.


The static configuration has the point symmetry C_1h.


Analysis of symmetry for dynamics (positions and initial velocities):
=====================================================================
 Subroutine PRICEL returns:
 Original cell was already a primitive cell.
 

 Routine SETGRP: Setting up the symmetry group for a 
 simple tetragonal supercell.


 Subroutine GETGRP returns: Found  2 space group operations
 (whereof  2 operations were pure point group operations)
 out of a pool of 16 trial point group operations.


The dynamic configuration has the point symmetry C_1h.


 Subroutine INISYM returns: Found  2 space group operations
 (whereof  2 operations are pure point group operations),
 and found     1 'primitive' translations

 
 
 KPOINTS: pymatgen with grid density = 3000 / numb

Automatic generation of k-mesh.
Space group operators:
 irot       det(A)        alpha          n_x          n_y          n_z        tau_x        tau_y        tau_z
    1     1.000000     0.000000     1.000000     0.000000     0.000000     0.000000     0.000000     0.000000
    2    -1.000000   180.000000     0.707107    -0.707107     0.000000     0.000000     0.000000     0.000000
 
 Subroutine IBZKPT returns following result:
 ===========================================
 
 Found    110 irreducible k-points:
 
 Following reciprocal coordinates:
            Coordinates               Weight
  0.000000  0.000000  0.000000      1.000000
  0.166667  0.000000  0.000000      4.000000
  0.333333  0.000000  0.000000      4.000000
  0.500000  0.000000  0.000000      2.000000
  0.166667  0.166667  0.000000      2.000000
  0.333333  0.166667  0.000000      4.000000
  0.500000  0.166667  0.000000      4.000000
 -0.333333  0.166667  0.000000      4.000000
 -0.166667  0.166667  0.000000      2.000000
  0.333333  0.333333  0.000000      2.000000
  0.500000  0.333333  0.000000      4.000000
 -0.333333  0.333333  0.000000      2.000000
  0.500000  0.500000  0.000000      1.000000
  0.000000  0.000000  0.100000      2.000000
  0.166667  0.000000  0.100000      4.000000
  0.333333  0.000000  0.100000      4.000000
  0.500000  0.000000  0.100000      4.000000
 -0.333333  0.000000  0.100000      4.000000
 -0.166667  0.000000  0.100000      4.000000
  0.166667  0.166667  0.100000      2.000000
  0.333333  0.166667  0.100000      4.000000
  0.500000  0.166667  0.100000      4.000000
 -0.333333  0.166667  0.100000      4.000000
 -0.166667  0.166667  0.100000      4.000000
  0.333333  0.333333  0.100000      2.000000
  0.500000  0.333333  0.100000      4.000000
 -0.333333  0.333333  0.100000      4.000000
 -0.166667  0.333333  0.100000      4.000000
  0.500000  0.500000  0.100000      2.000000
 -0.333333  0.500000  0.100000      4.000000
 -0.166667  0.500000  0.100000      4.000000
 -0.333333 -0.333333  0.100000      2.000000
 -0.166667 -0.333333  0.100000      4.000000
 -0.166667 -0.166667  0.100000      2.000000
  0.000000  0.000000  0.200000      2.000000
  0.166667  0.000000  0.200000      4.000000
  0.333333  0.000000  0.200000      4.000000
  0.500000  0.000000  0.200000      4.000000
 -0.333333  0.000000  0.200000      4.000000
 -0.166667  0.000000  0.200000      4.000000
  0.166667  0.166667  0.200000      2.000000
  0.333333  0.166667  0.200000      4.000000
  0.500000  0.166667  0.200000      4.000000
 -0.333333  0.166667  0.200000      4.000000
 -0.166667  0.166667  0.200000      4.000000
  0.333333  0.333333  0.200000      2.000000
  0.500000  0.333333  0.200000      4.000000
 -0.333333  0.333333  0.200000      4.000000
 -0.166667  0.333333  0.200000      4.000000
  0.500000  0.500000  0.200000      2.000000
 -0.333333  0.500000  0.200000      4.000000
 -0.166667  0.500000  0.200000      4.000000
 -0.333333 -0.333333  0.200000      2.000000
 -0.166667 -0.333333  0.200000      4.000000
 -0.166667 -0.166667  0.200000      2.000000
  0.000000  0.000000  0.300000      2.000000
  0.166667  0.000000  0.300000      4.000000
  0.333333  0.000000  0.300000      4.000000
  0.500000  0.000000  0.300000      4.000000
 -0.333333  0.000000  0.300000      4.000000
 -0.166667  0.000000  0.300000      4.000000
  0.166667  0.166667  0.300000      2.000000
  0.333333  0.166667  0.300000      4.000000
  0.500000  0.166667  0.300000      4.000000
 -0.333333  0.166667  0.300000      4.000000
 -0.166667  0.166667  0.300000      4.000000
  0.333333  0.333333  0.300000      2.000000
  0.500000  0.333333  0.300000      4.000000
 -0.333333  0.333333  0.300000      4.000000
 -0.166667  0.333333  0.300000      4.000000
  0.500000  0.500000  0.300000      2.000000
 -0.333333  0.500000  0.300000      4.000000
 -0.166667  0.500000  0.300000      4.000000
 -0.333333 -0.333333  0.300000      2.000000
 -0.166667 -0.333333  0.300000      4.000000
 -0.166667 -0.166667  0.300000      2.000000
  0.000000  0.000000  0.400000      2.000000
  0.166667  0.000000  0.400000      4.000000
  0.333333  0.000000  0.400000      4.000000
  0.500000  0.000000  0.400000      4.000000
 -0.333333  0.000000  0.400000      4.000000
 -0.166667  0.000000  0.400000      4.000000
  0.166667  0.166667  0.400000      2.000000
  0.333333  0.166667  0.400000      4.000000
  0.500000  0.166667  0.400000      4.000000
 -0.333333  0.166667  0.400000      4.000000
 -0.166667  0.166667  0.400000      4.000000
  0.333333  0.333333  0.400000      2.000000
  0.500000  0.333333  0.400000      4.000000
 -0.333333  0.333333  0.400000      4.000000
 -0.166667  0.333333  0.400000      4.000000
  0.500000  0.500000  0.400000      2.000000
 -0.333333  0.500000  0.400000      4.000000
 -0.166667  0.500000  0.400000      4.000000
 -0.333333 -0.333333  0.400000      2.000000
 -0.166667 -0.333333  0.400000      4.000000
 -0.166667 -0.166667  0.400000      2.000000
  0.000000  0.000000  0.500000      1.000000
  0.166667  0.000000  0.500000      4.000000
  0.333333  0.000000  0.500000      4.000000
  0.500000  0.000000  0.500000      2.000000
  0.166667  0.166667  0.500000      2.000000
  0.333333  0.166667  0.500000      4.000000
  0.500000  0.166667  0.500000      4.000000
 -0.333333  0.166667  0.500000      4.000000
 -0.166667  0.166667  0.500000      2.000000
  0.333333  0.333333  0.500000      2.000000
  0.500000  0.333333  0.500000      4.000000
 -0.333333  0.333333  0.500000      2.000000
  0.500000  0.500000  0.500000      1.000000
 
 Following cartesian coordinates:
            Coordinates               Weight
  0.000000  0.000000  0.000000      1.000000
  0.034979  0.000000  0.000000      4.000000
  0.069957  0.000000  0.000000      4.000000
  0.104936  0.000000  0.000000      2.000000
  0.034979  0.034979  0.000000      2.000000
  0.069957  0.034979  0.000000      4.000000
  0.104936  0.034979  0.000000      4.000000
 -0.069957  0.034979  0.000000      4.000000
 -0.034979  0.034979  0.000000      2.000000
  0.069957  0.069957  0.000000      2.000000
  0.104936  0.069957  0.000000      4.000000
 -0.069957  0.069957  0.000000      2.000000
  0.104936  0.104936  0.000000      1.000000
  0.000000  0.000000  0.031177      2.000000
  0.034979  0.000000  0.031177      4.000000
  0.069957  0.000000  0.031177      4.000000
  0.104936  0.000000  0.031177      4.000000
 -0.069957  0.000000  0.031177      4.000000
 -0.034979  0.000000  0.031177      4.000000
  0.034979  0.034979  0.031177      2.000000
  0.069957  0.034979  0.031177      4.000000
  0.104936  0.034979  0.031177      4.000000
 -0.069957  0.034979  0.031177      4.000000
 -0.034979  0.034979  0.031177      4.000000
  0.069957  0.069957  0.031177      2.000000
  0.104936  0.069957  0.031177      4.000000
 -0.069957  0.069957  0.031177      4.000000
 -0.034979  0.069957  0.031177      4.000000
  0.104936  0.104936  0.031177      2.000000
 -0.069957  0.104936  0.031177      4.000000
 -0.034979  0.104936  0.031177      4.000000
 -0.069957 -0.069957  0.031177      2.000000
 -0.034979 -0.069957  0.031177      4.000000
 -0.034979 -0.034979  0.031177      2.000000
  0.000000  0.000000  0.062354      2.000000
  0.034979  0.000000  0.062354      4.000000
  0.069957  0.000000  0.062354      4.000000
  0.104936  0.000000  0.062354      4.000000
 -0.069957  0.000000  0.062354      4.000000
 -0.034979  0.000000  0.062354      4.000000
  0.034979  0.034979  0.062354      2.000000
  0.069957  0.034979  0.062354      4.000000
  0.104936  0.034979  0.062354      4.000000
 -0.069957  0.034979  0.062354      4.000000
 -0.034979  0.034979  0.062354      4.000000
  0.069957  0.069957  0.062354      2.000000
  0.104936  0.069957  0.062354      4.000000
 -0.069957  0.069957  0.062354      4.000000
 -0.034979  0.069957  0.062354      4.000000
  0.104936  0.104936  0.062354      2.000000
 -0.069957  0.104936  0.062354      4.000000
 -0.034979  0.104936  0.062354      4.000000
 -0.069957 -0.069957  0.062354      2.000000
 -0.034979 -0.069957  0.062354      4.000000
 -0.034979 -0.034979  0.062354      2.000000
  0.000000  0.000000  0.093531      2.000000
  0.034979  0.000000  0.093531      4.000000
  0.069957  0.000000  0.093531      4.000000
  0.104936  0.000000  0.093531      4.000000
 -0.069957  0.000000  0.093531      4.000000
 -0.034979  0.000000  0.093531      4.000000
  0.034979  0.034979  0.093531      2.000000
  0.069957  0.034979  0.093531      4.000000
  0.104936  0.034979  0.093531      4.000000
 -0.069957  0.034979  0.093531      4.000000
 -0.034979  0.034979  0.093531      4.000000
  0.069957  0.069957  0.093531      2.000000
  0.104936  0.069957  0.093531      4.000000
 -0.069957  0.069957  0.093531      4.000000
 -0.034979  0.069957  0.093531      4.000000
  0.104936  0.104936  0.093531      2.000000
 -0.069957  0.104936  0.093531      4.000000
 -0.034979  0.104936  0.093531      4.000000
 -0.069957 -0.069957  0.093531      2.000000
 -0.034979 -0.069957  0.093531      4.000000
 -0.034979 -0.034979  0.093531      2.000000
  0.000000  0.000000  0.124708      2.000000
  0.034979  0.000000  0.124708      4.000000
  0.069957  0.000000  0.124708      4.000000
  0.104936  0.000000  0.124708      4.000000
 -0.069957  0.000000  0.124708      4.000000
 -0.034979  0.000000  0.124708      4.000000
  0.034979  0.034979  0.124708      2.000000
  0.069957  0.034979  0.124708      4.000000
  0.104936  0.034979  0.124708      4.000000
 -0.069957  0.034979  0.124708      4.000000
 -0.034979  0.034979  0.124708      4.000000
  0.069957  0.069957  0.124708      2.000000
  0.104936  0.069957  0.124708      4.000000
 -0.069957  0.069957  0.124708      4.000000
 -0.034979  0.069957  0.124708      4.000000
  0.104936  0.104936  0.124708      2.000000
 -0.069957  0.104936  0.124708      4.000000
 -0.034979  0.104936  0.124708      4.000000
 -0.069957 -0.069957  0.124708      2.000000
 -0.034979 -0.069957  0.124708      4.000000
 -0.034979 -0.034979  0.124708      2.000000
  0.000000  0.000000  0.155885      1.000000
  0.034979  0.000000  0.155885      4.000000
  0.069957  0.000000  0.155885      4.000000
  0.104936  0.000000  0.155885      2.000000
  0.034979  0.034979  0.155885      2.000000
  0.069957  0.034979  0.155885      4.000000
  0.104936  0.034979  0.155885      4.000000
 -0.069957  0.034979  0.155885      4.000000
 -0.034979  0.034979  0.155885      2.000000
  0.069957  0.069957  0.155885      2.000000
  0.104936  0.069957  0.155885      4.000000
 -0.069957  0.069957  0.155885      2.000000
  0.104936  0.104936  0.155885      1.000000
 
 
 Subroutine IBZKPT_HF returns following result:
 ==============================================
 
 Found    360 k-points in 1st BZ
 the following    360 k-points will be used (e.g. in the exchange kernel)
 Following reciprocal coordinates:   # in IRBZ
  0.000000  0.000000  0.000000    0.00277778   1 t-inv F
  0.166667  0.000000  0.000000    0.00277778   2 t-inv F
  0.333333  0.000000  0.000000    0.00277778   3 t-inv F
  0.500000  0.000000  0.000000    0.00277778   4 t-inv F
  0.166667  0.166667  0.000000    0.00277778   5 t-inv F
  0.333333  0.166667  0.000000    0.00277778   6 t-inv F
  0.500000  0.166667  0.000000    0.00277778   7 t-inv F
 -0.333333  0.166667  0.000000    0.00277778   8 t-inv F
 -0.166667  0.166667  0.000000    0.00277778   9 t-inv F
  0.333333  0.333333  0.000000    0.00277778  10 t-inv F
  0.500000  0.333333  0.000000    0.00277778  11 t-inv F
 -0.333333  0.333333  0.000000    0.00277778  12 t-inv F
  0.500000  0.500000  0.000000    0.00277778  13 t-inv F
  0.000000  0.000000  0.100000    0.00277778  14 t-inv F
  0.166667  0.000000  0.100000    0.00277778  15 t-inv F
  0.333333  0.000000  0.100000    0.00277778  16 t-inv F
  0.500000  0.000000  0.100000    0.00277778  17 t-inv F
 -0.333333  0.000000  0.100000    0.00277778  18 t-inv F
 -0.166667  0.000000  0.100000    0.00277778  19 t-inv F
  0.166667  0.166667  0.100000    0.00277778  20 t-inv F
  0.333333  0.166667  0.100000    0.00277778  21 t-inv F
  0.500000  0.166667  0.100000    0.00277778  22 t-inv F
 -0.333333  0.166667  0.100000    0.00277778  23 t-inv F
 -0.166667  0.166667  0.100000    0.00277778  24 t-inv F
  0.333333  0.333333  0.100000    0.00277778  25 t-inv F
  0.500000  0.333333  0.100000    0.00277778  26 t-inv F
 -0.333333  0.333333  0.100000    0.00277778  27 t-inv F
 -0.166667  0.333333  0.100000    0.00277778  28 t-inv F
  0.500000  0.500000  0.100000    0.00277778  29 t-inv F
 -0.333333  0.500000  0.100000    0.00277778  30 t-inv F
 -0.166667  0.500000  0.100000    0.00277778  31 t-inv F
 -0.333333 -0.333333  0.100000    0.00277778  32 t-inv F
 -0.166667 -0.333333  0.100000    0.00277778  33 t-inv F
 -0.166667 -0.166667  0.100000    0.00277778  34 t-inv F
  0.000000  0.000000  0.200000    0.00277778  35 t-inv F
  0.166667  0.000000  0.200000    0.00277778  36 t-inv F
  0.333333  0.000000  0.200000    0.00277778  37 t-inv F
  0.500000  0.000000  0.200000    0.00277778  38 t-inv F
 -0.333333  0.000000  0.200000    0.00277778  39 t-inv F
 -0.166667  0.000000  0.200000    0.00277778  40 t-inv F
  0.166667  0.166667  0.200000    0.00277778  41 t-inv F
  0.333333  0.166667  0.200000    0.00277778  42 t-inv F
  0.500000  0.166667  0.200000    0.00277778  43 t-inv F
 -0.333333  0.166667  0.200000    0.00277778  44 t-inv F
 -0.166667  0.166667  0.200000    0.00277778  45 t-inv F
  0.333333  0.333333  0.200000    0.00277778  46 t-inv F
  0.500000  0.333333  0.200000    0.00277778  47 t-inv F
 -0.333333  0.333333  0.200000    0.00277778  48 t-inv F
 -0.166667  0.333333  0.200000    0.00277778  49 t-inv F
  0.500000  0.500000  0.200000    0.00277778  50 t-inv F
 -0.333333  0.500000  0.200000    0.00277778  51 t-inv F
 -0.166667  0.500000  0.200000    0.00277778  52 t-inv F
 -0.333333 -0.333333  0.200000    0.00277778  53 t-inv F
 -0.166667 -0.333333  0.200000    0.00277778  54 t-inv F
 -0.166667 -0.166667  0.200000    0.00277778  55 t-inv F
  0.000000  0.000000  0.300000    0.00277778  56 t-inv F
  0.166667  0.000000  0.300000    0.00277778  57 t-inv F
  0.333333  0.000000  0.300000    0.00277778  58 t-inv F
  0.500000  0.000000  0.300000    0.00277778  59 t-inv F
 -0.333333  0.000000  0.300000    0.00277778  60 t-inv F
 -0.166667  0.000000  0.300000    0.00277778  61 t-inv F
  0.166667  0.166667  0.300000    0.00277778  62 t-inv F
  0.333333  0.166667  0.300000    0.00277778  63 t-inv F
  0.500000  0.166667  0.300000    0.00277778  64 t-inv F
 -0.333333  0.166667  0.300000    0.00277778  65 t-inv F
 -0.166667  0.166667  0.300000    0.00277778  66 t-inv F
  0.333333  0.333333  0.300000    0.00277778  67 t-inv F
  0.500000  0.333333  0.300000    0.00277778  68 t-inv F
 -0.333333  0.333333  0.300000    0.00277778  69 t-inv F
 -0.166667  0.333333  0.300000    0.00277778  70 t-inv F
  0.500000  0.500000  0.300000    0.00277778  71 t-inv F
 -0.333333  0.500000  0.300000    0.00277778  72 t-inv F
 -0.166667  0.500000  0.300000    0.00277778  73 t-inv F
 -0.333333 -0.333333  0.300000    0.00277778  74 t-inv F
 -0.166667 -0.333333  0.300000    0.00277778  75 t-inv F
 -0.166667 -0.166667  0.300000    0.00277778  76 t-inv F
  0.000000  0.000000  0.400000    0.00277778  77 t-inv F
  0.166667  0.000000  0.400000    0.00277778  78 t-inv F
  0.333333  0.000000  0.400000    0.00277778  79 t-inv F
  0.500000  0.000000  0.400000    0.00277778  80 t-inv F
 -0.333333  0.000000  0.400000    0.00277778  81 t-inv F
 -0.166667  0.000000  0.400000    0.00277778  82 t-inv F
  0.166667  0.166667  0.400000    0.00277778  83 t-inv F
  0.333333  0.166667  0.400000    0.00277778  84 t-inv F
  0.500000  0.166667  0.400000    0.00277778  85 t-inv F
 -0.333333  0.166667  0.400000    0.00277778  86 t-inv F
 -0.166667  0.166667  0.400000    0.00277778  87 t-inv F
  0.333333  0.333333  0.400000    0.00277778  88 t-inv F
  0.500000  0.333333  0.400000    0.00277778  89 t-inv F
 -0.333333  0.333333  0.400000    0.00277778  90 t-inv F
 -0.166667  0.333333  0.400000    0.00277778  91 t-inv F
  0.500000  0.500000  0.400000    0.00277778  92 t-inv F
 -0.333333  0.500000  0.400000    0.00277778  93 t-inv F
 -0.166667  0.500000  0.400000    0.00277778  94 t-inv F
 -0.333333 -0.333333  0.400000    0.00277778  95 t-inv F
 -0.166667 -0.333333  0.400000    0.00277778  96 t-inv F
 -0.166667 -0.166667  0.400000    0.00277778  97 t-inv F
  0.000000  0.000000  0.500000    0.00277778  98 t-inv F
  0.166667  0.000000  0.500000    0.00277778  99 t-inv F
  0.333333  0.000000  0.500000    0.00277778 100 t-inv F
  0.500000  0.000000  0.500000    0.00277778 101 t-inv F
  0.166667  0.166667  0.500000    0.00277778 102 t-inv F
  0.333333  0.166667  0.500000    0.00277778 103 t-inv F
  0.500000  0.166667  0.500000    0.00277778 104 t-inv F
 -0.333333  0.166667  0.500000    0.00277778 105 t-inv F
 -0.166667  0.166667  0.500000    0.00277778 106 t-inv F
  0.333333  0.333333  0.500000    0.00277778 107 t-inv F
  0.500000  0.333333  0.500000    0.00277778 108 t-inv F
 -0.333333  0.333333  0.500000    0.00277778 109 t-inv F
  0.500000  0.500000  0.500000    0.00277778 110 t-inv F
  0.000000  0.166667  0.000000    0.00277778   2 t-inv F
  0.000000  0.333333  0.000000    0.00277778   3 t-inv F
  0.000000  0.500000  0.000000    0.00277778   4 t-inv F
  0.166667  0.333333  0.000000    0.00277778   6 t-inv F
  0.166667  0.500000  0.000000    0.00277778   7 t-inv F
  0.166667 -0.333333  0.000000    0.00277778   8 t-inv F
  0.166667 -0.166667  0.000000    0.00277778   9 t-inv F
  0.333333  0.500000  0.000000    0.00277778  11 t-inv F
  0.333333 -0.333333  0.000000    0.00277778  12 t-inv F
  0.000000  0.166667  0.100000    0.00277778  15 t-inv F
  0.000000  0.333333  0.100000    0.00277778  16 t-inv F
  0.000000  0.500000  0.100000    0.00277778  17 t-inv F
  0.000000 -0.333333  0.100000    0.00277778  18 t-inv F
  0.000000 -0.166667  0.100000    0.00277778  19 t-inv F
  0.166667  0.333333  0.100000    0.00277778  21 t-inv F
  0.166667  0.500000  0.100000    0.00277778  22 t-inv F
  0.166667 -0.333333  0.100000    0.00277778  23 t-inv F
  0.166667 -0.166667  0.100000    0.00277778  24 t-inv F
  0.333333  0.500000  0.100000    0.00277778  26 t-inv F
  0.333333 -0.333333  0.100000    0.00277778  27 t-inv F
  0.333333 -0.166667  0.100000    0.00277778  28 t-inv F
  0.500000 -0.333333  0.100000    0.00277778  30 t-inv F
  0.500000 -0.166667  0.100000    0.00277778  31 t-inv F
 -0.333333 -0.166667  0.100000    0.00277778  33 t-inv F
  0.000000  0.166667  0.200000    0.00277778  36 t-inv F
  0.000000  0.333333  0.200000    0.00277778  37 t-inv F
  0.000000  0.500000  0.200000    0.00277778  38 t-inv F
  0.000000 -0.333333  0.200000    0.00277778  39 t-inv F
  0.000000 -0.166667  0.200000    0.00277778  40 t-inv F
  0.166667  0.333333  0.200000    0.00277778  42 t-inv F
  0.166667  0.500000  0.200000    0.00277778  43 t-inv F
  0.166667 -0.333333  0.200000    0.00277778  44 t-inv F
  0.166667 -0.166667  0.200000    0.00277778  45 t-inv F
  0.333333  0.500000  0.200000    0.00277778  47 t-inv F
  0.333333 -0.333333  0.200000    0.00277778  48 t-inv F
  0.333333 -0.166667  0.200000    0.00277778  49 t-inv F
  0.500000 -0.333333  0.200000    0.00277778  51 t-inv F
  0.500000 -0.166667  0.200000    0.00277778  52 t-inv F
 -0.333333 -0.166667  0.200000    0.00277778  54 t-inv F
  0.000000  0.166667  0.300000    0.00277778  57 t-inv F
  0.000000  0.333333  0.300000    0.00277778  58 t-inv F
  0.000000  0.500000  0.300000    0.00277778  59 t-inv F
  0.000000 -0.333333  0.300000    0.00277778  60 t-inv F
  0.000000 -0.166667  0.300000    0.00277778  61 t-inv F
  0.166667  0.333333  0.300000    0.00277778  63 t-inv F
  0.166667  0.500000  0.300000    0.00277778  64 t-inv F
  0.166667 -0.333333  0.300000    0.00277778  65 t-inv F
  0.166667 -0.166667  0.300000    0.00277778  66 t-inv F
  0.333333  0.500000  0.300000    0.00277778  68 t-inv F
  0.333333 -0.333333  0.300000    0.00277778  69 t-inv F
  0.333333 -0.166667  0.300000    0.00277778  70 t-inv F
  0.500000 -0.333333  0.300000    0.00277778  72 t-inv F
  0.500000 -0.166667  0.300000    0.00277778  73 t-inv F
 -0.333333 -0.166667  0.300000    0.00277778  75 t-inv F
  0.000000  0.166667  0.400000    0.00277778  78 t-inv F
  0.000000  0.333333  0.400000    0.00277778  79 t-inv F
  0.000000  0.500000  0.400000    0.00277778  80 t-inv F
  0.000000 -0.333333  0.400000    0.00277778  81 t-inv F
  0.000000 -0.166667  0.400000    0.00277778  82 t-inv F
  0.166667  0.333333  0.400000    0.00277778  84 t-inv F
  0.166667  0.500000  0.400000    0.00277778  85 t-inv F
  0.166667 -0.333333  0.400000    0.00277778  86 t-inv F
  0.166667 -0.166667  0.400000    0.00277778  87 t-inv F
  0.333333  0.500000  0.400000    0.00277778  89 t-inv F
  0.333333 -0.333333  0.400000    0.00277778  90 t-inv F
  0.333333 -0.166667  0.400000    0.00277778  91 t-inv F
  0.500000 -0.333333  0.400000    0.00277778  93 t-inv F
  0.500000 -0.166667  0.400000    0.00277778  94 t-inv F
 -0.333333 -0.166667  0.400000    0.00277778  96 t-inv F
  0.000000  0.166667  0.500000    0.00277778  99 t-inv F
  0.000000  0.333333  0.500000    0.00277778 100 t-inv F
  0.000000  0.500000  0.500000    0.00277778 101 t-inv F
  0.166667  0.333333  0.500000    0.00277778 103 t-inv F
  0.166667  0.500000  0.500000    0.00277778 104 t-inv F
  0.166667 -0.333333  0.500000    0.00277778 105 t-inv F
  0.166667 -0.166667  0.500000    0.00277778 106 t-inv F
  0.333333  0.500000  0.500000    0.00277778 108 t-inv F
  0.333333 -0.333333  0.500000    0.00277778 109 t-inv F
 -0.166667  0.000000  0.000000    0.00277778   2 t-inv T
  0.000000 -0.166667  0.000000    0.00277778   2 t-inv T
 -0.333333  0.000000  0.000000    0.00277778   3 t-inv T
  0.000000 -0.333333  0.000000    0.00277778   3 t-inv T
 -0.166667 -0.166667  0.000000    0.00277778   5 t-inv T
 -0.333333 -0.166667  0.000000    0.00277778   6 t-inv T
 -0.166667 -0.333333  0.000000    0.00277778   6 t-inv T
 -0.500000 -0.166667  0.000000    0.00277778   7 t-inv T
 -0.166667 -0.500000  0.000000    0.00277778   7 t-inv T
  0.333333 -0.166667  0.000000    0.00277778   8 t-inv T
 -0.166667  0.333333  0.000000    0.00277778   8 t-inv T
 -0.333333 -0.333333  0.000000    0.00277778  10 t-inv T
 -0.500000 -0.333333  0.000000    0.00277778  11 t-inv T
 -0.333333 -0.500000  0.000000    0.00277778  11 t-inv T
  0.000000  0.000000 -0.100000    0.00277778  14 t-inv T
 -0.166667  0.000000 -0.100000    0.00277778  15 t-inv T
  0.000000 -0.166667 -0.100000    0.00277778  15 t-inv T
 -0.333333  0.000000 -0.100000    0.00277778  16 t-inv T
  0.000000 -0.333333 -0.100000    0.00277778  16 t-inv T
 -0.500000  0.000000 -0.100000    0.00277778  17 t-inv T
  0.000000 -0.500000 -0.100000    0.00277778  17 t-inv T
  0.333333  0.000000 -0.100000    0.00277778  18 t-inv T
  0.000000  0.333333 -0.100000    0.00277778  18 t-inv T
  0.166667  0.000000 -0.100000    0.00277778  19 t-inv T
  0.000000  0.166667 -0.100000    0.00277778  19 t-inv T
 -0.166667 -0.166667 -0.100000    0.00277778  20 t-inv T
 -0.333333 -0.166667 -0.100000    0.00277778  21 t-inv T
 -0.166667 -0.333333 -0.100000    0.00277778  21 t-inv T
 -0.500000 -0.166667 -0.100000    0.00277778  22 t-inv T
 -0.166667 -0.500000 -0.100000    0.00277778  22 t-inv T
  0.333333 -0.166667 -0.100000    0.00277778  23 t-inv T
 -0.166667  0.333333 -0.100000    0.00277778  23 t-inv T
  0.166667 -0.166667 -0.100000    0.00277778  24 t-inv T
 -0.166667  0.166667 -0.100000    0.00277778  24 t-inv T
 -0.333333 -0.333333 -0.100000    0.00277778  25 t-inv T
 -0.500000 -0.333333 -0.100000    0.00277778  26 t-inv T
 -0.333333 -0.500000 -0.100000    0.00277778  26 t-inv T
  0.333333 -0.333333 -0.100000    0.00277778  27 t-inv T
 -0.333333  0.333333 -0.100000    0.00277778  27 t-inv T
  0.166667 -0.333333 -0.100000    0.00277778  28 t-inv T
 -0.333333  0.166667 -0.100000    0.00277778  28 t-inv T
 -0.500000 -0.500000 -0.100000    0.00277778  29 t-inv T
  0.333333 -0.500000 -0.100000    0.00277778  30 t-inv T
 -0.500000  0.333333 -0.100000    0.00277778  30 t-inv T
  0.166667 -0.500000 -0.100000    0.00277778  31 t-inv T
 -0.500000  0.166667 -0.100000    0.00277778  31 t-inv T
  0.333333  0.333333 -0.100000    0.00277778  32 t-inv T
  0.166667  0.333333 -0.100000    0.00277778  33 t-inv T
  0.333333  0.166667 -0.100000    0.00277778  33 t-inv T
  0.166667  0.166667 -0.100000    0.00277778  34 t-inv T
  0.000000  0.000000 -0.200000    0.00277778  35 t-inv T
 -0.166667  0.000000 -0.200000    0.00277778  36 t-inv T
  0.000000 -0.166667 -0.200000    0.00277778  36 t-inv T
 -0.333333  0.000000 -0.200000    0.00277778  37 t-inv T
  0.000000 -0.333333 -0.200000    0.00277778  37 t-inv T
 -0.500000  0.000000 -0.200000    0.00277778  38 t-inv T
  0.000000 -0.500000 -0.200000    0.00277778  38 t-inv T
  0.333333  0.000000 -0.200000    0.00277778  39 t-inv T
  0.000000  0.333333 -0.200000    0.00277778  39 t-inv T
  0.166667  0.000000 -0.200000    0.00277778  40 t-inv T
  0.000000  0.166667 -0.200000    0.00277778  40 t-inv T
 -0.166667 -0.166667 -0.200000    0.00277778  41 t-inv T
 -0.333333 -0.166667 -0.200000    0.00277778  42 t-inv T
 -0.166667 -0.333333 -0.200000    0.00277778  42 t-inv T
 -0.500000 -0.166667 -0.200000    0.00277778  43 t-inv T
 -0.166667 -0.500000 -0.200000    0.00277778  43 t-inv T
  0.333333 -0.166667 -0.200000    0.00277778  44 t-inv T
 -0.166667  0.333333 -0.200000    0.00277778  44 t-inv T
  0.166667 -0.166667 -0.200000    0.00277778  45 t-inv T
 -0.166667  0.166667 -0.200000    0.00277778  45 t-inv T
 -0.333333 -0.333333 -0.200000    0.00277778  46 t-inv T
 -0.500000 -0.333333 -0.200000    0.00277778  47 t-inv T
 -0.333333 -0.500000 -0.200000    0.00277778  47 t-inv T
  0.333333 -0.333333 -0.200000    0.00277778  48 t-inv T
 -0.333333  0.333333 -0.200000    0.00277778  48 t-inv T
  0.166667 -0.333333 -0.200000    0.00277778  49 t-inv T
 -0.333333  0.166667 -0.200000    0.00277778  49 t-inv T
 -0.500000 -0.500000 -0.200000    0.00277778  50 t-inv T
  0.333333 -0.500000 -0.200000    0.00277778  51 t-inv T
 -0.500000  0.333333 -0.200000    0.00277778  51 t-inv T
  0.166667 -0.500000 -0.200000    0.00277778  52 t-inv T
 -0.500000  0.166667 -0.200000    0.00277778  52 t-inv T
  0.333333  0.333333 -0.200000    0.00277778  53 t-inv T
  0.166667  0.333333 -0.200000    0.00277778  54 t-inv T
  0.333333  0.166667 -0.200000    0.00277778  54 t-inv T
  0.166667  0.166667 -0.200000    0.00277778  55 t-inv T
  0.000000  0.000000 -0.300000    0.00277778  56 t-inv T
 -0.166667  0.000000 -0.300000    0.00277778  57 t-inv T
  0.000000 -0.166667 -0.300000    0.00277778  57 t-inv T
 -0.333333  0.000000 -0.300000    0.00277778  58 t-inv T
  0.000000 -0.333333 -0.300000    0.00277778  58 t-inv T
 -0.500000  0.000000 -0.300000    0.00277778  59 t-inv T
  0.000000 -0.500000 -0.300000    0.00277778  59 t-inv T
  0.333333  0.000000 -0.300000    0.00277778  60 t-inv T
  0.000000  0.333333 -0.300000    0.00277778  60 t-inv T
  0.166667  0.000000 -0.300000    0.00277778  61 t-inv T
  0.000000  0.166667 -0.300000    0.00277778  61 t-inv T
 -0.166667 -0.166667 -0.300000    0.00277778  62 t-inv T
 -0.333333 -0.166667 -0.300000    0.00277778  63 t-inv T
 -0.166667 -0.333333 -0.300000    0.00277778  63 t-inv T
 -0.500000 -0.166667 -0.300000    0.00277778  64 t-inv T
 -0.166667 -0.500000 -0.300000    0.00277778  64 t-inv T
  0.333333 -0.166667 -0.300000    0.00277778  65 t-inv T
 -0.166667  0.333333 -0.300000    0.00277778  65 t-inv T
  0.166667 -0.166667 -0.300000    0.00277778  66 t-inv T
 -0.166667  0.166667 -0.300000    0.00277778  66 t-inv T
 -0.333333 -0.333333 -0.300000    0.00277778  67 t-inv T
 -0.500000 -0.333333 -0.300000    0.00277778  68 t-inv T
 -0.333333 -0.500000 -0.300000    0.00277778  68 t-inv T
  0.333333 -0.333333 -0.300000    0.00277778  69 t-inv T
 -0.333333  0.333333 -0.300000    0.00277778  69 t-inv T
  0.166667 -0.333333 -0.300000    0.00277778  70 t-inv T
 -0.333333  0.166667 -0.300000    0.00277778  70 t-inv T
 -0.500000 -0.500000 -0.300000    0.00277778  71 t-inv T
  0.333333 -0.500000 -0.300000    0.00277778  72 t-inv T
 -0.500000  0.333333 -0.300000    0.00277778  72 t-inv T
  0.166667 -0.500000 -0.300000    0.00277778  73 t-inv T
 -0.500000  0.166667 -0.300000    0.00277778  73 t-inv T
  0.333333  0.333333 -0.300000    0.00277778  74 t-inv T
  0.166667  0.333333 -0.300000    0.00277778  75 t-inv T
  0.333333  0.166667 -0.300000    0.00277778  75 t-inv T
  0.166667  0.166667 -0.300000    0.00277778  76 t-inv T
  0.000000  0.000000 -0.400000    0.00277778  77 t-inv T
 -0.166667  0.000000 -0.400000    0.00277778  78 t-inv T
  0.000000 -0.166667 -0.400000    0.00277778  78 t-inv T
 -0.333333  0.000000 -0.400000    0.00277778  79 t-inv T
  0.000000 -0.333333 -0.400000    0.00277778  79 t-inv T
 -0.500000  0.000000 -0.400000    0.00277778  80 t-inv T
  0.000000 -0.500000 -0.400000    0.00277778  80 t-inv T
  0.333333  0.000000 -0.400000    0.00277778  81 t-inv T
  0.000000  0.333333 -0.400000    0.00277778  81 t-inv T
  0.166667  0.000000 -0.400000    0.00277778  82 t-inv T
  0.000000  0.166667 -0.400000    0.00277778  82 t-inv T
 -0.166667 -0.166667 -0.400000    0.00277778  83 t-inv T
 -0.333333 -0.166667 -0.400000    0.00277778  84 t-inv T
 -0.166667 -0.333333 -0.400000    0.00277778  84 t-inv T
 -0.500000 -0.166667 -0.400000    0.00277778  85 t-inv T
 -0.166667 -0.500000 -0.400000    0.00277778  85 t-inv T
  0.333333 -0.166667 -0.400000    0.00277778  86 t-inv T
 -0.166667  0.333333 -0.400000    0.00277778  86 t-inv T
  0.166667 -0.166667 -0.400000    0.00277778  87 t-inv T
 -0.166667  0.166667 -0.400000    0.00277778  87 t-inv T
 -0.333333 -0.333333 -0.400000    0.00277778  88 t-inv T
 -0.500000 -0.333333 -0.400000    0.00277778  89 t-inv T
 -0.333333 -0.500000 -0.400000    0.00277778  89 t-inv T
  0.333333 -0.333333 -0.400000    0.00277778  90 t-inv T
 -0.333333  0.333333 -0.400000    0.00277778  90 t-inv T
  0.166667 -0.333333 -0.400000    0.00277778  91 t-inv T
 -0.333333  0.166667 -0.400000    0.00277778  91 t-inv T
 -0.500000 -0.500000 -0.400000    0.00277778  92 t-inv T
  0.333333 -0.500000 -0.400000    0.00277778  93 t-inv T
 -0.500000  0.333333 -0.400000    0.00277778  93 t-inv T
  0.166667 -0.500000 -0.400000    0.00277778  94 t-inv T
 -0.500000  0.166667 -0.400000    0.00277778  94 t-inv T
  0.333333  0.333333 -0.400000    0.00277778  95 t-inv T
  0.166667  0.333333 -0.400000    0.00277778  96 t-inv T
  0.333333  0.166667 -0.400000    0.00277778  96 t-inv T
  0.166667  0.166667 -0.400000    0.00277778  97 t-inv T
 -0.166667  0.000000 -0.500000    0.00277778  99 t-inv T
  0.000000 -0.166667 -0.500000    0.00277778  99 t-inv T
 -0.333333  0.000000 -0.500000    0.00277778 100 t-inv T
  0.000000 -0.333333 -0.500000    0.00277778 100 t-inv T
 -0.166667 -0.166667 -0.500000    0.00277778 102 t-inv T
 -0.333333 -0.166667 -0.500000    0.00277778 103 t-inv T
 -0.166667 -0.333333 -0.500000    0.00277778 103 t-inv T
 -0.500000 -0.166667 -0.500000    0.00277778 104 t-inv T
 -0.166667 -0.500000 -0.500000    0.00277778 104 t-inv T
  0.333333 -0.166667 -0.500000    0.00277778 105 t-inv T
 -0.166667  0.333333 -0.500000    0.00277778 105 t-inv T
 -0.333333 -0.333333 -0.500000    0.00277778 107 t-inv T
 -0.500000 -0.333333 -0.500000    0.00277778 108 t-inv T
 -0.333333 -0.500000 -0.500000    0.00277778 108 t-inv T


--------------------------------------------------------------------------------------------------------




 Dimension of arrays:
   k-points           NKPTS =    110   k-points in BZ     NKDIM =    110   number of bands    NBANDS=     32
   number of dos      NEDOS =    301   number of ions     NIONS =      6
   non local maximal  LDIM  =      6   non local SUM 2l+1 LMDIM =     18
   total plane-waves  NPLWV =  31104
   max r-space proj   IRMAX =      1   max aug-charges    IRDMAX=  19272
   dimension x,y,z NGX =    36 NGY =   36 NGZ =   24
   dimension x,y,z NGXF=    72 NGYF=   72 NGZF=   48
   support grid    NGXF=    72 NGYF=   72 NGZF=   48
   ions per type =               2   4
   NGX,Y,Z   is equivalent  to a cutoff of  12.56, 12.56, 12.44 a.u.
   NGXF,Y,Z  is equivalent  to a cutoff of  25.12, 25.12, 24.88 a.u.

 SYSTEM =  unknown system                          
 POSCAR =  Sn2 O4                                  

 Startparameter for this run:
   NWRITE =      2    write-flag & timer
   PREC   = accura    normal or accurate (medium, high low for compatibility)
   ISTART =      0    job   : 0-new  1-cont  2-samecut
   ICHARG =      2    charge: 1-file 2-atom 10-const
   ISPIN  =      1    spin polarized calculation?
   LNONCOLLINEAR =      F non collinear calculations
   LSORBIT =      F    spin-orbit coupling
   INIWAV =      1    electr: 0-lowe 1-rand  2-diag
   LASPH  =      F    aspherical Exc in radial PAW
   METAGGA=      F    non-selfconsistent MetaGGA calc.

 Electronic Relaxation 1
   ENCUT  =  520.0 eV  38.22 Ry    6.18 a.u.   8.86  8.86  5.96*2*pi/ulx,y,z
   ENINI  =  520.0     initial cutoff
   ENAUG  =  605.4 eV  augmentation charge cutoff
   NELM   =    100;   NELMIN=  2; NELMDL= -5     # of ELM steps 
   EDIFF  = 0.1E-07   stopping-criterion for ELM
   LREAL  =      F    real-space projection
   NLSPLINE    = F    spline interpolate recip. space projectors
   LCOMPAT=      F    compatible to vasp.4.4
   GGA_COMPAT  = T    GGA compatible to vasp.4.4-vasp.4.6
   LMAXPAW     = -100 max onsite density
   LMAXMIX     =    2 max onsite mixed and CHGCAR
   VOSKOWN=      0    Vosko Wilk Nusair interpolation
   ROPT   =    0.00000   0.00000
 Ionic relaxation
   EDIFFG = 0.1E-06   stopping-criterion for IOM
   NSW    =      1    number of steps for IOM
   NBLOCK =      1;   KBLOCK =      1    inner block; outer block 
   IBRION =      8    ionic relax: 0-MD 1-quasi-New 2-CG
   NFREE  =      0    steps in history (QN), initial steepest desc. (CG)
   ISIF   =      2    stress and relaxation
   IWAVPR =     11    prediction:  0-non 1-charg 2-wave 3-comb
   ISYM   =      2    0-nonsym 1-usesym 2-fastsym
   LCORR  =      T    Harris-Foulkes like correction to forces

   POTIM  = 0.5000    time-step for ionic-motion
   TEIN   =    0.0    initial temperature
   TEBEG  =    0.0;   TEEND  =   0.0 temperature during run
   SMASS  =  -3.00    Nose mass-parameter (am)
   estimated Nose-frequenzy (Omega)   =  0.10E-29 period in steps =****** mass=  -0.519E-27a.u.
   SCALEE = 1.0000    scale energy and forces
   NPACO  =    256;   APACO  = 16.0  distance and # of slots for P.C.
   PSTRESS=    0.0 pullay stress

  Mass of Ions in am
   POMASS = 118.71 16.00
  Ionic Valenz
   ZVAL   =  14.00  6.00
  Atomic Wigner-Seitz radii
   RWIGS  =  -1.00 -1.00
  virtual crystal weights 
   VCA    =   1.00  1.00
   NELECT =      52.0000    total number of electrons
   NUPDOWN=      -1.0000    fix difference up-down

 DOS related values:
   EMIN   =  10.00;   EMAX   =-10.00  energy-range for DOS
   EFERMI =   0.00
   ISMEAR =     0;   SIGMA  =   0.01  broadening in eV -4-tet -1-fermi 0-gaus

 Electronic relaxation 2 (details)
   IALGO  =     38    algorithm
   LDIAG  =      T    sub-space diagonalisation (order eigenvalues)
   LSUBROT=      F    optimize rotation matrix (better conditioning)
   TURBO    =      0    0=normal 1=particle mesh
   IRESTART =      0    0=no restart 2=restart with 2 vectors
   NREBOOT  =      0    no. of reboots
   NMIN     =      0    reboot dimension
   EREF     =   0.00    reference energy to select bands
   IMIX   =      4    mixing-type and parameters
     AMIX     =   0.40;   BMIX     =  1.00
     AMIX_MAG =   1.60;   BMIX_MAG =  1.00
     AMIN     =   0.10
     WC   =   100.;   INIMIX=   1;  MIXPRE=   1;  MAXMIX= -45

 Intra band minimization:
   WEIMIN = 0.0010     energy-eigenvalue tresh-hold
   EBREAK =  0.78E-10  absolut break condition
   DEPER  =   0.30     relativ break condition  

   TIME   =   0.40     timestep for ELM

  volume/ion in A,a.u.               =      12.14        81.90
  Fermi-wavevector in a.u.,A,eV,Ry     =   1.463265  2.765169 29.132026  2.141143
  Thomas-Fermi vector in A             =   2.579380
 
 Write flags
   LWAVE        =      F    write WAVECAR
   LDOWNSAMPLE  =      F    k-point downsampling of WAVECAR
   LCHARG       =      T    write CHGCAR
   LVTOT        =      F    write LOCPOT, total local potential
   LVHAR        =      F    write LOCPOT, Hartree potential only
   LELF         =      F    write electronic localiz. function (ELF)
   LORBIT       =      0    0 simple, 1 ext, 2 COOP (PROOUT), +10 PAW based schemes


 Dipole corrections
   LMONO  =      F    monopole corrections only (constant potential shift)
   LDIPOL =      F    correct potential (dipole corrections)
   IDIPOL =      0    1-x, 2-y, 3-z, 4-all directions 
   EPSILON=  1.0000000 bulk dielectric constant

 Exchange correlation treatment:
   GGA     =    --    GGA type
   LEXCH   =     8    internal setting for exchange type
   VOSKOWN=      0    Vosko Wilk Nusair interpolation
   LHFCALC =     F    Hartree Fock is set to
   LHFONE  =     F    Hartree Fock one center treatment
   AEXX    =    0.0000 exact exchange contribution

 Linear response parameters
   LEPSILON=     T    determine dielectric tensor
   LRPA    =     F    only Hartree local field effects (RPA)
   LNABLA  =     F    use nabla operator in PAW spheres
   LVEL    =     F    velocity operator in full k-point grid
   LINTERFAST=   F  fast interpolation
   KINTER  =     0    interpolate to denser k-point grid
   CSHIFT  =0.1000    complex shift for real part using Kramers Kronig
   OMEGAMAX=  -1.0    maximum frequency
   DEG_THRESHOLD= 0.2000000E-02 threshold for treating states as degnerate
   RTIME   =   -0.100 relaxation time in fs
  (WPLASMAI=    0.000 imaginary part of plasma frequency in eV, 0.658/RTIME)
   DFIELD  = 0.0000000 0.0000000 0.0000000 field for delta impulse in time
 
 Orbital magnetization related:
   ORBITALMAG=     F  switch on orbital magnetization
   LCHIMAG   =     F  perturbation theory with respect to B field
   DQ        =  0.001000  dq finite difference perturbation B field
   LLRAUG    =     F  two centre corrections for induced B field

 PEAD related settings:
   LPEAD      =     T    switch on PEAD
   IPEAD      =     4    finite difference order for dpsi/dk
   LCALCPOL   =     F    calculate macroscopic polarization
   LCALCEPS   =     F    calculate dielectric tensor
   EFIELD_PEAD=    0.0000    0.0000    0.0000
   SKIP_EDOTP =     F
   LRPA       =     F
   SKIP_SCF   =     F


--------------------------------------------------------------------------------------------------------


 linear response using symmetry
 charge density and potential will be updated during run
 non-spin polarized calculation
 Variant of blocked Davidson
 Davidson routine will perform the subspace rotation
 perform sub-space diagonalisation
    after iterative eigenvector-optimisation
 modified Broyden-mixing scheme, WC =      100.0
 initial mixing is a Kerker type mixing with AMIX =  0.4000 and BMIX =      1.0000
 Hartree-type preconditioning will be used
 using additional bands            6
 reciprocal scheme for non local part
 use partial core corrections
 calculate Harris-corrections to forces 
   (improved forces if not selfconsistent)
 use gradient corrections 
 use of overlap-Matrix (Vanderbilt PP)
 Gauss-broadening in eV      SIGMA  =   0.01


--------------------------------------------------------------------------------------------------------


  energy-cutoff  :      520.00
  volume of cell :       72.82
      direct lattice vectors                 reciprocal lattice vectors
     4.764817679  0.000000000  0.000000000     0.209871619  0.000000000  0.000000000
     0.000000000  4.764817679  0.000000000     0.000000000  0.209871619  0.000000000
     0.000000000  0.000000000  3.207499524     0.000000000  0.000000000  0.311769337

  length of vectors
     4.764817679  4.764817679  3.207499524     0.209871619  0.209871619  0.311769337


 
 k-points in units of 2pi/SCALE and weight: pymatgen with grid density = 3000 / numb
   0.00000000  0.00000000  0.00000000       0.003
   0.03497860  0.00000000  0.00000000       0.011
   0.06995721  0.00000000  0.00000000       0.011
   0.10493581  0.00000000  0.00000000       0.006
   0.03497860  0.03497860  0.00000000       0.006
   0.06995721  0.03497860  0.00000000       0.011
   0.10493581  0.03497860  0.00000000       0.011
  -0.06995721  0.03497860  0.00000000       0.011
  -0.03497860  0.03497860  0.00000000       0.006
   0.06995721  0.06995721  0.00000000       0.006
   0.10493581  0.06995721  0.00000000       0.011
  -0.06995721  0.06995721  0.00000000       0.006
   0.10493581  0.10493581  0.00000000       0.003
   0.00000000  0.00000000  0.03117693       0.006
   0.03497860  0.00000000  0.03117693       0.011
   0.06995721  0.00000000  0.03117693       0.011
   0.10493581  0.00000000  0.03117693       0.011
  -0.06995721  0.00000000  0.03117693       0.011
  -0.03497860  0.00000000  0.03117693       0.011
   0.03497860  0.03497860  0.03117693       0.006
   0.06995721  0.03497860  0.03117693       0.011
   0.10493581  0.03497860  0.03117693       0.011
  -0.06995721  0.03497860  0.03117693       0.011
  -0.03497860  0.03497860  0.03117693       0.011
   0.06995721  0.06995721  0.03117693       0.006
   0.10493581  0.06995721  0.03117693       0.011
  -0.06995721  0.06995721  0.03117693       0.011
  -0.03497860  0.06995721  0.03117693       0.011
   0.10493581  0.10493581  0.03117693       0.006
  -0.06995721  0.10493581  0.03117693       0.011
  -0.03497860  0.10493581  0.03117693       0.011
  -0.06995721 -0.06995721  0.03117693       0.006
  -0.03497860 -0.06995721  0.03117693       0.011
  -0.03497860 -0.03497860  0.03117693       0.006
   0.00000000  0.00000000  0.06235387       0.006
   0.03497860  0.00000000  0.06235387       0.011
   0.06995721  0.00000000  0.06235387       0.011
   0.10493581  0.00000000  0.06235387       0.011
  -0.06995721  0.00000000  0.06235387       0.011
  -0.03497860  0.00000000  0.06235387       0.011
   0.03497860  0.03497860  0.06235387       0.006
   0.06995721  0.03497860  0.06235387       0.011
   0.10493581  0.03497860  0.06235387       0.011
  -0.06995721  0.03497860  0.06235387       0.011
  -0.03497860  0.03497860  0.06235387       0.011
   0.06995721  0.06995721  0.06235387       0.006
   0.10493581  0.06995721  0.06235387       0.011
  -0.06995721  0.06995721  0.06235387       0.011
  -0.03497860  0.06995721  0.06235387       0.011
   0.10493581  0.10493581  0.06235387       0.006
  -0.06995721  0.10493581  0.06235387       0.011
  -0.03497860  0.10493581  0.06235387       0.011
  -0.06995721 -0.06995721  0.06235387       0.006
  -0.03497860 -0.06995721  0.06235387       0.011
  -0.03497860 -0.03497860  0.06235387       0.006
   0.00000000  0.00000000  0.09353080       0.006
   0.03497860  0.00000000  0.09353080       0.011
   0.06995721  0.00000000  0.09353080       0.011
   0.10493581  0.00000000  0.09353080       0.011
  -0.06995721  0.00000000  0.09353080       0.011
  -0.03497860  0.00000000  0.09353080       0.011
   0.03497860  0.03497860  0.09353080       0.006
   0.06995721  0.03497860  0.09353080       0.011
   0.10493581  0.03497860  0.09353080       0.011
  -0.06995721  0.03497860  0.09353080       0.011
  -0.03497860  0.03497860  0.09353080       0.011
   0.06995721  0.06995721  0.09353080       0.006
   0.10493581  0.06995721  0.09353080       0.011
  -0.06995721  0.06995721  0.09353080       0.011
  -0.03497860  0.06995721  0.09353080       0.011
   0.10493581  0.10493581  0.09353080       0.006
  -0.06995721  0.10493581  0.09353080       0.011
  -0.03497860  0.10493581  0.09353080       0.011
  -0.06995721 -0.06995721  0.09353080       0.006
  -0.03497860 -0.06995721  0.09353080       0.011
  -0.03497860 -0.03497860  0.09353080       0.006
   0.00000000  0.00000000  0.12470773       0.006
   0.03497860  0.00000000  0.12470773       0.011
   0.06995721  0.00000000  0.12470773       0.011
   0.10493581  0.00000000  0.12470773       0.011
  -0.06995721  0.00000000  0.12470773       0.011
  -0.03497860  0.00000000  0.12470773       0.011
   0.03497860  0.03497860  0.12470773       0.006
   0.06995721  0.03497860  0.12470773       0.011
   0.10493581  0.03497860  0.12470773       0.011
  -0.06995721  0.03497860  0.12470773       0.011
  -0.03497860  0.03497860  0.12470773       0.011
   0.06995721  0.06995721  0.12470773       0.006
   0.10493581  0.06995721  0.12470773       0.011
  -0.06995721  0.06995721  0.12470773       0.011
  -0.03497860  0.06995721  0.12470773       0.011
   0.10493581  0.10493581  0.12470773       0.006
  -0.06995721  0.10493581  0.12470773       0.011
  -0.03497860  0.10493581  0.12470773       0.011
  -0.06995721 -0.06995721  0.12470773       0.006
  -0.03497860 -0.06995721  0.12470773       0.011
  -0.03497860 -0.03497860  0.12470773       0.006
   0.00000000  0.00000000  0.15588467       0.003
   0.03497860  0.00000000  0.15588467       0.011
   0.06995721  0.00000000  0.15588467       0.011
   0.10493581  0.00000000  0.15588467       0.006
   0.03497860  0.03497860  0.15588467       0.006
   0.06995721  0.03497860  0.15588467       0.011
   0.10493581  0.03497860  0.15588467       0.011
  -0.06995721  0.03497860  0.15588467       0.011
  -0.03497860  0.03497860  0.15588467       0.006
   0.06995721  0.06995721  0.15588467       0.006
   0.10493581  0.06995721  0.15588467       0.011
  -0.06995721  0.06995721  0.15588467       0.006
   0.10493581  0.10493581  0.15588467       0.003
 
 k-points in reciprocal lattice and weights: pymatgen with grid density = 3000 / numb
   0.00000000  0.00000000  0.00000000       0.003
   0.16666667  0.00000000  0.00000000       0.011
   0.33333333  0.00000000  0.00000000       0.011
   0.50000000  0.00000000  0.00000000       0.006
   0.16666667  0.16666667  0.00000000       0.006
   0.33333333  0.16666667  0.00000000       0.011
   0.50000000  0.16666667  0.00000000       0.011
  -0.33333333  0.16666667  0.00000000       0.011
  -0.16666667  0.16666667  0.00000000       0.006
   0.33333333  0.33333333  0.00000000       0.006
   0.50000000  0.33333333  0.00000000       0.011
  -0.33333333  0.33333333  0.00000000       0.006
   0.50000000  0.50000000  0.00000000       0.003
   0.00000000  0.00000000  0.10000000       0.006
   0.16666667  0.00000000  0.10000000       0.011
   0.33333333  0.00000000  0.10000000       0.011
   0.50000000  0.00000000  0.10000000       0.011
  -0.33333333  0.00000000  0.10000000       0.011
  -0.16666667  0.00000000  0.10000000       0.011
   0.16666667  0.16666667  0.10000000       0.006
   0.33333333  0.16666667  0.10000000       0.011
   0.50000000  0.16666667  0.10000000       0.011
  -0.33333333  0.16666667  0.10000000       0.011
  -0.16666667  0.16666667  0.10000000       0.011
   0.33333333  0.33333333  0.10000000       0.006
   0.50000000  0.33333333  0.10000000       0.011
  -0.33333333  0.33333333  0.10000000       0.011
  -0.16666667  0.33333333  0.10000000       0.011
   0.50000000  0.50000000  0.10000000       0.006
  -0.33333333  0.50000000  0.10000000       0.011
  -0.16666667  0.50000000  0.10000000       0.011
  -0.33333333 -0.33333333  0.10000000       0.006
  -0.16666667 -0.33333333  0.10000000       0.011
  -0.16666667 -0.16666667  0.10000000       0.006
   0.00000000  0.00000000  0.20000000       0.006
   0.16666667  0.00000000  0.20000000       0.011
   0.33333333  0.00000000  0.20000000       0.011
   0.50000000  0.00000000  0.20000000       0.011
  -0.33333333  0.00000000  0.20000000       0.011
  -0.16666667  0.00000000  0.20000000       0.011
   0.16666667  0.16666667  0.20000000       0.006
   0.33333333  0.16666667  0.20000000       0.011
   0.50000000  0.16666667  0.20000000       0.011
  -0.33333333  0.16666667  0.20000000       0.011
  -0.16666667  0.16666667  0.20000000       0.011
   0.33333333  0.33333333  0.20000000       0.006
   0.50000000  0.33333333  0.20000000       0.011
  -0.33333333  0.33333333  0.20000000       0.011
  -0.16666667  0.33333333  0.20000000       0.011
   0.50000000  0.50000000  0.20000000       0.006
  -0.33333333  0.50000000  0.20000000       0.011
  -0.16666667  0.50000000  0.20000000       0.011
  -0.33333333 -0.33333333  0.20000000       0.006
  -0.16666667 -0.33333333  0.20000000       0.011
  -0.16666667 -0.16666667  0.20000000       0.006
   0.00000000  0.00000000  0.30000000       0.006
   0.16666667  0.00000000  0.30000000       0.011
   0.33333333  0.00000000  0.30000000       0.011
   0.50000000  0.00000000  0.30000000       0.011
  -0.33333333  0.00000000  0.30000000       0.011
  -0.16666667  0.00000000  0.30000000       0.011
   0.16666667  0.16666667  0.30000000       0.006
   0.33333333  0.16666667  0.30000000       0.011
   0.50000000  0.16666667  0.30000000       0.011
  -0.33333333  0.16666667  0.30000000       0.011
  -0.16666667  0.16666667  0.30000000       0.011
   0.33333333  0.33333333  0.30000000       0.006
   0.50000000  0.33333333  0.30000000       0.011
  -0.33333333  0.33333333  0.30000000       0.011
  -0.16666667  0.33333333  0.30000000       0.011
   0.50000000  0.50000000  0.30000000       0.006
  -0.33333333  0.50000000  0.30000000       0.011
  -0.16666667  0.50000000  0.30000000       0.011
  -0.33333333 -0.33333333  0.30000000       0.006
  -0.16666667 -0.33333333  0.30000000       0.011
  -0.16666667 -0.16666667  0.30000000       0.006
   0.00000000  0.00000000  0.40000000       0.006
   0.16666667  0.00000000  0.40000000       0.011
   0.33333333  0.00000000  0.40000000       0.011
   0.50000000  0.00000000  0.40000000       0.011
  -0.33333333  0.00000000  0.40000000       0.011
  -0.16666667  0.00000000  0.40000000       0.011
   0.16666667  0.16666667  0.40000000       0.006
   0.33333333  0.16666667  0.40000000       0.011
   0.50000000  0.16666667  0.40000000       0.011
  -0.33333333  0.16666667  0.40000000       0.011
  -0.16666667  0.16666667  0.40000000       0.011
   0.33333333  0.33333333  0.40000000       0.006
   0.50000000  0.33333333  0.40000000       0.011
  -0.33333333  0.33333333  0.40000000       0.011
  -0.16666667  0.33333333  0.40000000       0.011
   0.50000000  0.50000000  0.40000000       0.006
  -0.33333333  0.50000000  0.40000000       0.011
  -0.16666667  0.50000000  0.40000000       0.011
  -0.33333333 -0.33333333  0.40000000       0.006
  -0.16666667 -0.33333333  0.40000000       0.011
  -0.16666667 -0.16666667  0.40000000       0.006
   0.00000000  0.00000000  0.50000000       0.003
   0.16666667  0.00000000  0.50000000       0.011
   0.33333333  0.00000000  0.50000000       0.011
   0.50000000  0.00000000  0.50000000       0.006
   0.16666667  0.16666667  0.50000000       0.006
   0.33333333  0.16666667  0.50000000       0.011
   0.50000000  0.16666667  0.50000000       0.011
  -0.33333333  0.16666667  0.50000000       0.011
  -0.16666667  0.16666667  0.50000000       0.006
   0.33333333  0.33333333  0.50000000       0.006
   0.50000000  0.33333333  0.50000000       0.011
  -0.33333333  0.33333333  0.50000000       0.006
   0.50000000  0.50000000  0.50000000       0.003
 
 position of ions in fractional coordinates (direct lattice) 
   0.50000004  0.50000004  0.50000004
   0.00000000  0.00000000  0.00000000
   0.80597236  0.19402772  0.50000004
   0.19402772  0.80597236  0.50000004
   0.30597232  0.30597232  0.00000000
   0.69402776  0.69402776  0.00000000
 
 position of ions in cartesian coordinates  (Angst):
   2.38240902  2.38240902  1.60374989
   0.00000000  0.00000000  0.00000000
   3.84031133  0.92450671  1.60374989
   0.92450671  3.84031133  1.60374989
   1.45790231  1.45790231  0.00000000
   3.30691573  3.30691573  0.00000000
 


--------------------------------------------------------------------------------------------------------


 k-point  1 :   0.0000 0.0000 0.0000  plane waves:    1947
 k-point  2 :   0.1667 0.0000 0.0000  plane waves:    1938
 k-point  3 :   0.3333 0.0000 0.0000  plane waves:    1960
 k-point  4 :   0.5000 0.0000 0.0000  plane waves:    1962
 k-point  5 :   0.1667 0.1667 0.0000  plane waves:    1945
 k-point  6 :   0.3333 0.1667 0.0000  plane waves:    1950
 k-point  7 :   0.5000 0.1667 0.0000  plane waves:    1950
 k-point  8 :  -0.3333 0.1667 0.0000  plane waves:    1950
 k-point  9 :  -0.1667 0.1667 0.0000  plane waves:    1945
 k-point 10 :   0.3333 0.3333 0.0000  plane waves:    1940
 k-point 11 :   0.5000 0.3333 0.0000  plane waves:    1946
 k-point 12 :  -0.3333 0.3333 0.0000  plane waves:    1940
 k-point 13 :   0.5000 0.5000 0.0000  plane waves:    1968
 k-point 14 :   0.0000 0.0000 0.1000  plane waves:    1956
 k-point 15 :   0.1667 0.0000 0.1000  plane waves:    1956
 k-point 16 :   0.3333 0.0000 0.1000  plane waves:    1956
 k-point 17 :   0.5000 0.0000 0.1000  plane waves:    1950
 k-point 18 :  -0.3333 0.0000 0.1000  plane waves:    1956
 k-point 19 :  -0.1667 0.0000 0.1000  plane waves:    1956
 k-point 20 :   0.1667 0.1667 0.1000  plane waves:    1956
 k-point 21 :   0.3333 0.1667 0.1000  plane waves:    1952
 k-point 22 :   0.5000 0.1667 0.1000  plane waves:    1956
 k-point 23 :  -0.3333 0.1667 0.1000  plane waves:    1952
 k-point 24 :  -0.1667 0.1667 0.1000  plane waves:    1956
 k-point 25 :   0.3333 0.3333 0.1000  plane waves:    1958
 k-point 26 :   0.5000 0.3333 0.1000  plane waves:    1960
 k-point 27 :  -0.3333 0.3333 0.1000  plane waves:    1958
 k-point 28 :  -0.1667 0.3333 0.1000  plane waves:    1952
 k-point 29 :   0.5000 0.5000 0.1000  plane waves:    1960
 k-point 30 :  -0.3333 0.5000 0.1000  plane waves:    1960
 k-point 31 :  -0.1667 0.5000 0.1000  plane waves:    1956
 k-point 32 :  -0.3333-0.3333 0.1000  plane waves:    1958
 k-point 33 :  -0.1667-0.3333 0.1000  plane waves:    1952
 k-point 34 :  -0.1667-0.1667 0.1000  plane waves:    1956
 k-point 35 :   0.0000 0.0000 0.2000  plane waves:    1956
 k-point 36 :   0.1667 0.0000 0.2000  plane waves:    1962
 k-point 37 :   0.3333 0.0000 0.2000  plane waves:    1961
 k-point 38 :   0.5000 0.0000 0.2000  plane waves:    1968
 k-point 39 :  -0.3333 0.0000 0.2000  plane waves:    1961
 k-point 40 :  -0.1667 0.0000 0.2000  plane waves:    1962
 k-point 41 :   0.1667 0.1667 0.2000  plane waves:    1957
 k-point 42 :   0.3333 0.1667 0.2000  plane waves:    1958
 k-point 43 :   0.5000 0.1667 0.2000  plane waves:    1956
 k-point 44 :  -0.3333 0.1667 0.2000  plane waves:    1958
 k-point 45 :  -0.1667 0.1667 0.2000  plane waves:    1957
 k-point 46 :   0.3333 0.3333 0.2000  plane waves:    1963
 k-point 47 :   0.5000 0.3333 0.2000  plane waves:    1962
 k-point 48 :  -0.3333 0.3333 0.2000  plane waves:    1963
 k-point 49 :  -0.1667 0.3333 0.2000  plane waves:    1958
 k-point 50 :   0.5000 0.5000 0.2000  plane waves:    1952
 k-point 51 :  -0.3333 0.5000 0.2000  plane waves:    1962
 k-point 52 :  -0.1667 0.5000 0.2000  plane waves:    1956
 k-point 53 :  -0.3333-0.3333 0.2000  plane waves:    1963
 k-point 54 :  -0.1667-0.3333 0.2000  plane waves:    1958
 k-point 55 :  -0.1667-0.1667 0.2000  plane waves:    1957
 k-point 56 :   0.0000 0.0000 0.3000  plane waves:    1964
 k-point 57 :   0.1667 0.0000 0.3000  plane waves:    1961
 k-point 58 :   0.3333 0.0000 0.3000  plane waves:    1957
 k-point 59 :   0.5000 0.0000 0.3000  plane waves:    1966
 k-point 60 :  -0.3333 0.0000 0.3000  plane waves:    1957
 k-point 61 :  -0.1667 0.0000 0.3000  plane waves:    1961
 k-point 62 :   0.1667 0.1667 0.3000  plane waves:    1968
 k-point 63 :   0.3333 0.1667 0.3000  plane waves:    1960
 k-point 64 :   0.5000 0.1667 0.3000  plane waves:    1964
 k-point 65 :  -0.3333 0.1667 0.3000  plane waves:    1960
 k-point 66 :  -0.1667 0.1667 0.3000  plane waves:    1968
 k-point 67 :   0.3333 0.3333 0.3000  plane waves:    1968
 k-point 68 :   0.5000 0.3333 0.3000  plane waves:    1970
 k-point 69 :  -0.3333 0.3333 0.3000  plane waves:    1968
 k-point 70 :  -0.1667 0.3333 0.3000  plane waves:    1960
 k-point 71 :   0.5000 0.5000 0.3000  plane waves:    1948
 k-point 72 :  -0.3333 0.5000 0.3000  plane waves:    1970
 k-point 73 :  -0.1667 0.5000 0.3000  plane waves:    1964
 k-point 74 :  -0.3333-0.3333 0.3000  plane waves:    1968
 k-point 75 :  -0.1667-0.3333 0.3000  plane waves:    1960
 k-point 76 :  -0.1667-0.1667 0.3000  plane waves:    1968
 k-point 77 :   0.0000 0.0000 0.4000  plane waves:    1952
 k-point 78 :   0.1667 0.0000 0.4000  plane waves:    1968
 k-point 79 :   0.3333 0.0000 0.4000  plane waves:    1955
 k-point 80 :   0.5000 0.0000 0.4000  plane waves:    1958
 k-point 81 :  -0.3333 0.0000 0.4000  plane waves:    1955
 k-point 82 :  -0.1667 0.0000 0.4000  plane waves:    1968
 k-point 83 :   0.1667 0.1667 0.4000  plane waves:    1960
 k-point 84 :   0.3333 0.1667 0.4000  plane waves:    1960
 k-point 85 :   0.5000 0.1667 0.4000  plane waves:    1962
 k-point 86 :  -0.3333 0.1667 0.4000  plane waves:    1960
 k-point 87 :  -0.1667 0.1667 0.4000  plane waves:    1960
 k-point 88 :   0.3333 0.3333 0.4000  plane waves:    1978
 k-point 89 :   0.5000 0.3333 0.4000  plane waves:    1986
 k-point 90 :  -0.3333 0.3333 0.4000  plane waves:    1978
 k-point 91 :  -0.1667 0.3333 0.4000  plane waves:    1960
 k-point 92 :   0.5000 0.5000 0.4000  plane waves:    1980
 k-point 93 :  -0.3333 0.5000 0.4000  plane waves:    1986
 k-point 94 :  -0.1667 0.5000 0.4000  plane waves:    1962
 k-point 95 :  -0.3333-0.3333 0.4000  plane waves:    1978
 k-point 96 :  -0.1667-0.3333 0.4000  plane waves:    1960
 k-point 97 :  -0.1667-0.1667 0.4000  plane waves:    1960
 k-point 98 :   0.0000 0.0000 0.5000  plane waves:    1940
 k-point 99 :   0.1667 0.0000 0.5000  plane waves:    1966
 k-point ** :   0.3333 0.0000 0.5000  plane waves:    1968
 k-point ** :   0.5000 0.0000 0.5000  plane waves:    1968
 k-point ** :   0.1667 0.1667 0.5000  plane waves:    1962
 k-point ** :   0.3333 0.1667 0.5000  plane waves:    1956
 k-point ** :   0.5000 0.1667 0.5000  plane waves:    1960
 k-point ** :  -0.3333 0.1667 0.5000  plane waves:    1956
 k-point ** :  -0.1667 0.1667 0.5000  plane waves:    1962
 k-point ** :   0.3333 0.3333 0.5000  plane waves:    1982
 k-point ** :   0.5000 0.3333 0.5000  plane waves:    1972
 k-point ** :  -0.3333 0.3333 0.5000  plane waves:    1982
 k-point ** :   0.5000 0.5000 0.5000  plane waves:    1992

 maximum and minimum number of plane-waves per node :      1992     1938

 maximum number of plane-waves:      1992
 maximum index in each direction: 
   IXMAX=    9   IYMAX=    9   IZMAX=    5
   IXMIN=   -9   IYMIN=   -9   IZMIN=   -6


 serial   3D FFT for wavefunctions
 parallel 3D FFT for charge:
    minimum data exchange during FFTs selected (reduces bandwidth)


 total amount of memory used by VASP MPI-rank0   112199. kBytes
=======================================================================

   base      :      30000. kBytes
   nonl-proj :      63297. kBytes
   fftplans  :       1221. kBytes
   grid      :       3058. kBytes
   one-center:         93. kBytes
   wavefun   :      14530. kBytes
 
     INWAV:  cpu time    0.0000: real time    0.0000
 Broyden mixing: mesh for mixing (old mesh)
   NGX = 17   NGY = 17   NGZ = 11
  (NGX  = 72   NGY  = 72   NGZ  = 48)
  gives a total of   3179 points

 initial charge density was supplied:
 charge density of overlapping atoms calculated
 number of electron      52.0000000 magnetization 
 keeping initial charge density in first step


--------------------------------------------------------------------------------------------------------


 Maximum index for augmentation-charges         2380 (set IRDMAX)


--------------------------------------------------------------------------------------------------------


 First call to EWALD:  gamma=   0.424
 Maximum number of real-space cells 2x 2x 3
 Maximum number of reciprocal cells 3x 3x 2

    FEWALD:  cpu time    0.0012: real time    0.0012


--------------------------------------- Iteration      1(   1)  ---------------------------------------


    POTLOK:  cpu time    0.0174: real time    0.0197
    SETDIJ:  cpu time    0.0027: real time    0.0027
     EDDAV:  cpu time    2.3579: real time    2.3670
       DOS:  cpu time    0.0016: real time    0.0019
    --------------------------------------------
      LOOP:  cpu time    2.3796: real time    2.3912

 eigenvalue-minimisations  :  7760
 total energy-change (2. order) : 0.6388070E+03  (-0.2635778E+04)
 number of electron      52.0000000 magnetization 
 augmentation part       52.0000000 magnetization 

 Free energy of the ion-electron system (eV)
  ---------------------------------------------------
  alpha Z        PSCENC =       180.38768962
  Ewald energy   TEWEN  =     -4160.16053760
  -Hartree energ DENC   =     -1382.40445812
  -exchange      EXHF   =         0.00000000
  -V(xc)+E(xc)   XCENC  =       227.15982071
  PAW double counting   =      4523.96198671    -4605.61875434
  entropy T*S    EENTRO =        -0.00008901
  eigenvalues    EBANDS =       339.83610996
  atomic energy  EATOM  =      5515.64520068
  Solvation  Ediel_sol  =         0.00000000
  ---------------------------------------------------
  free energy    TOTEN  =       638.80696859 eV

  energy without entropy =      638.80705761  energy(sigma->0) =      638.80701310


--------------------------------------------------------------------------------------------------------




--------------------------------------- Iteration      1(   2)  ---------------------------------------


     EDDAV:  cpu time    2.5111: real time    2.5227
       DOS:  cpu time    0.0020: real time    0.0019
    --------------------------------------------
      LOOP:  cpu time    2.5130: real time    2.5246

 eigenvalue-minimisations  :  7936
 total energy-change (2. order) :-0.5862569E+03  (-0.5622274E+03)
 number of electron      52.0000000 magnetization 
 augmentation part       52.0000000 magnetization 

 Free energy of the ion-electron system (eV)
  ---------------------------------------------------
  alpha Z        PSCENC =       180.38768962
  Ewald energy   TEWEN  =     -4160.16053760
  -Hartree energ DENC   =     -1382.40445812
  -exchange      EXHF   =         0.00000000
  -V(xc)+E(xc)   XCENC  =       227.15982071
  PAW double counting   =      4523.96198671    -4605.61875434
  entropy T*S    EENTRO =        -0.00004997
  eigenvalues    EBANDS =      -246.42081410
  atomic energy  EATOM  =      5515.64520068
  Solvation  Ediel_sol  =         0.00000000
  ---------------------------------------------------
  free energy    TOTEN  =        52.55008357 eV

  energy without entropy =       52.55013355  energy(sigma->0) =       52.55010856


--------------------------------------------------------------------------------------------------------




--------------------------------------- Iteration      1(   3)  ---------------------------------------


     EDDAV:  cpu time    2.4440: real time    2.4593
       DOS:  cpu time    0.0006: real time    0.0008
    --------------------------------------------
      LOOP:  cpu time    2.4445: real time    2.4600

 eigenvalue-minimisations  :  8072
 total energy-change (2. order) :-0.9138733E+02  (-0.9002977E+02)
 number of electron      52.0000000 magnetization 
 augmentation part       52.0000000 magnetization 

 Free energy of the ion-electron system (eV)
  ---------------------------------------------------
  alpha Z        PSCENC =       180.38768962
  Ewald energy   TEWEN  =     -4160.16053760
  -Hartree energ DENC   =     -1382.40445812
  -exchange      EXHF   =         0.00000000
  -V(xc)+E(xc)   XCENC  =       227.15982071
  PAW double counting   =      4523.96198671    -4605.61875434
  entropy T*S    EENTRO =        -0.00000000
  eigenvalues    EBANDS =      -337.80818908
  atomic energy  EATOM  =      5515.64520068
  Solvation  Ediel_sol  =         0.00000000
  ---------------------------------------------------
  free energy    TOTEN  =       -38.83724143 eV

  energy without entropy =      -38.83724143  energy(sigma->0) =      -38.83724143


--------------------------------------------------------------------------------------------------------




--------------------------------------- Iteration      1(   4)  ---------------------------------------


     EDDAV:  cpu time    2.4821: real time    2.4938
       DOS:  cpu time    0.0006: real time    0.0006
    --------------------------------------------
      LOOP:  cpu time    2.4827: real time    2.4944

 eigenvalue-minimisations  :  8496
 total energy-change (2. order) :-0.4478271E+01  (-0.4459168E+01)
 number of electron      52.0000000 magnetization 
 augmentation part       52.0000000 magnetization 

 Free energy of the ion-electron system (eV)
  ---------------------------------------------------
  alpha Z        PSCENC =       180.38768962
  Ewald energy   TEWEN  =     -4160.16053760
  -Hartree energ DENC   =     -1382.40445812
  -exchange      EXHF   =         0.00000000
  -V(xc)+E(xc)   XCENC  =       227.15982071
  PAW double counting   =      4523.96198671    -4605.61875434
  entropy T*S    EENTRO =        -0.00000000
  eigenvalues    EBANDS =      -342.28645968
  atomic energy  EATOM  =      5515.64520068
  Solvation  Ediel_sol  =         0.00000000
  ---------------------------------------------------
  free energy    TOTEN  =       -43.31551203 eV

  energy without entropy =      -43.31551203  energy(sigma->0) =      -43.31551203


--------------------------------------------------------------------------------------------------------




--------------------------------------- Iteration      1(   5)  ---------------------------------------


     EDDAV:  cpu time    2.5628: real time    2.5843
       DOS:  cpu time    0.0005: real time    0.0005
    CHARGE:  cpu time    0.1816: real time    0.1816
    MIXING:  cpu time    0.0009: real time    0.0010
    --------------------------------------------
      LOOP:  cpu time    2.7458: real time    2.7673

 eigenvalue-minimisations  :  8648
 total energy-change (2. order) :-0.1360059E+00  (-0.1359552E+00)
 number of electron      52.0000001 magnetization 
 augmentation part       18.6025742 magnetization 

 Broyden mixing:
  rms(total) = 0.15938E+01    rms(broyden)= 0.15932E+01
  rms(prec ) = 0.31863E+01
  weight for this iteration     100.00

 Free energy of the ion-electron system (eV)
  ---------------------------------------------------
  alpha Z        PSCENC =       180.38768962
  Ewald energy   TEWEN  =     -4160.16053760
  -Hartree energ DENC   =     -1382.40445812
  -exchange      EXHF   =         0.00000000
  -V(xc)+E(xc)   XCENC  =       227.15982071
  PAW double counting   =      4523.96198671    -4605.61875434
[...]

 INTERNAL STRAIN TENSOR FOR ION    3 for displacements in x,y,z  (eV/Angst):
          X           Y           Z          XY          YZ          ZX
  --------------------------------------------------------------------------------
  x     1.47901     0.50980     5.26213     2.54069     0.08511     0.08609
  y    -0.51044    -1.47875    -5.26188    -2.52857     0.08149     0.09258
  z     0.00072    -0.00005    -0.00450    -0.02498    -5.42526     5.99862

 INTERNAL STRAIN TENSOR FOR ION    4 for displacements in x,y,z  (eV/Angst):
          X           Y           Z          XY          YZ          ZX
  --------------------------------------------------------------------------------
  x    -1.47875    -0.51044    -5.26188    -2.54059    -0.09171    -0.08716
  y     0.50980     1.47901     5.26213     2.52866    -0.08252    -0.09910
  z    -0.00005     0.00072    -0.00450     0.03302     5.42627    -5.99760

 INTERNAL STRAIN TENSOR FOR ION    5 for displacements in x,y,z  (eV/Angst):
          X           Y           Z          XY          YZ          ZX
  --------------------------------------------------------------------------------
  x     1.47882     0.50991     5.26222    -2.53949    -0.08527     0.08609
  y     0.50991     1.47882     5.26222    -2.53239    -0.08258     0.09895
  z     0.00058     0.00058    -0.00514    -0.00140     5.42639     5.99873

 INTERNAL STRAIN TENSOR FOR ION    6 for displacements in x,y,z  (eV/Angst):
          X           Y           Z          XY          YZ          ZX
  --------------------------------------------------------------------------------
  x    -1.47914    -0.50976    -5.26200     2.53817     0.09177    -0.08708
  y    -0.50976    -1.47914    -5.26200     2.53107     0.08158    -0.09248
  z     0.00021     0.00021    -0.00412    -0.00553    -5.42567    -5.99800


--------------------------------------------------------------------------------------------------------


 
 SECOND DERIVATIVES (NOT SYMMETRIZED)
 ------------------------------------
               1X          1Y          1Z          2X          2Y          2Z          3X          3Y          3Z          4X          4Y          4Z          5X          5Y          5Z          6X          6Y          6Z 
  1X   -24.005220   -0.547709    0.000317    9.214663   -0.000021   -0.000060    2.808277   -3.734960    0.000429    2.808158   -3.734424   -0.000537    4.587135    4.008717   -0.001352    4.586986    4.008397    0.001203
  1Y    -0.547709  -24.005220    0.000317   -0.000021    9.214663   -0.000060   -3.734424    2.808158   -0.000537   -3.734960    2.808277    0.000429    4.008717    4.587135   -0.001352    4.008397    4.586986    0.001203
  1Z     0.000006    0.000006  -20.064546   -0.000006   -0.000006    0.206708   -0.000272    0.000258    0.269055    0.000258   -0.000272    0.269055   -0.000194   -0.000194    9.659784    0.000208    0.000208    9.659943
  2X     9.214552    0.000105   -0.000029  -24.004634    0.547519    0.000224    4.586894   -4.008303   -0.001307    4.586902   -4.008777    0.001233    2.808042    3.734580    0.000420    2.808245    3.734875   -0.000540
  2Y     0.000105    9.214552   -0.000029    0.547519  -24.004634    0.000224   -4.008777    4.586902    0.001233   -4.008303    4.586894   -0.001307    3.734580    2.808042    0.000420    3.734875    2.808245   -0.000540
  2Z    -0.000000   -0.000000    0.206828   -0.000030   -0.000030  -20.065578   -0.000182    0.000195    9.660097    0.000195   -0.000182    9.660097   -0.000258   -0.000258    0.269171    0.000276    0.000276    0.269386
  3X     2.787080   -3.733187   -0.000374    4.571574   -4.011799    0.000090  -13.447763    9.981602    0.000680    2.477011   -2.234867   -0.000265    3.939543    0.439834    0.000027   -0.327445   -0.441583   -0.000159
  3Y    -3.733455    2.786886    0.000348   -4.011800    4.571761   -0.000134    9.981879  -13.447722   -0.000493   -2.234870    2.477009    0.000220   -0.441559   -0.327391    0.000122    0.439806    3.939458   -0.000062
  3Z     0.000112   -0.000156    0.248494    0.000242   -0.000237    9.638643   -0.000242    0.000349  -13.109931    0.000096   -0.000146   -0.348213   -0.000001    0.000200    1.785461   -0.000207   -0.000010    1.785546
  4X     2.786886   -3.733455    0.000348    4.571761   -4.011800   -0.000134    2.477009   -2.234870    0.000220  -13.447722    9.981879   -0.000493   -0.327391   -0.441559    0.000122    3.939458    0.439806   -0.000062
  4Y    -3.733187    2.787080   -0.000374   -4.011799    4.571574    0.000090   -2.234867    2.477011   -0.000265    9.981602  -13.447763    0.000680    0.439834    3.939543    0.000027   -0.441583   -0.327445   -0.000159
  4Z    -0.000156    0.000112    0.248494   -0.000237    0.000242    9.638643   -0.000146    0.000096   -0.348213    0.000349   -0.000242  -13.109931    0.000200   -0.000001    1.785461   -0.000010   -0.000207    1.785546
  5X     4.571587    4.011680   -0.000005    2.787208    3.733452   -0.000424    3.939357   -0.439741    0.000000   -0.327348    0.441618   -0.000167  -13.447922   -9.981816    0.000876    2.477118    2.234807   -0.000280
  5Y     4.011680    4.571587   -0.000005    3.733452    2.787208   -0.000424    0.441618   -0.327348   -0.000167   -0.439741    3.939357    0.000000   -9.981816  -13.447922    0.000876    2.234807    2.477118   -0.000280
  5Z     0.000305    0.000305    9.638791    0.000246    0.000246    0.248503    0.000061   -0.000162    1.785522   -0.000162    0.000061    1.785522   -0.000578   -0.000578  -13.109978    0.000127    0.000127   -0.348359
  6X     4.571658    4.011818   -0.000129    2.786917    3.733186    0.000352   -0.327449    0.441565    0.000154    3.939514   -0.439855   -0.000033    2.476997    2.234835    0.000213  -13.447636   -9.981549   -0.000558
  6Y     4.011818    4.571658   -0.000129    3.733186    2.786917    0.000352   -0.439855    3.939514   -0.000033    0.441565   -0.327449    0.000154    2.234835    2.476997    0.000213   -9.981549  -13.447636   -0.000558
  6Z    -0.000282   -0.000282    9.638535   -0.000206   -0.000206    0.248469    0.000169   -0.000014    1.785578   -0.000014    0.000169    1.785578   -0.000169   -0.000169   -0.348176    0.000502    0.000502  -13.109985
 
 
 Eigenvectors and eigenvalues of the dynamical matrix
 ----------------------------------------------------
 
 
   1 f  =   22.549926 THz   141.685365 2PiTHz  752.184550 cm-1    93.259032 meV
             X         Y         Z           dx          dy          dz
      2.382409  2.382409  1.603750    -0.000001   -0.000001    0.000006  
      0.000000  0.000000  0.000000     0.000002    0.000002   -0.000006  
      3.840311  0.924507  1.603750     0.353556   -0.353552    0.000005  
      0.924507  3.840311  1.603750    -0.353552    0.353556    0.000005  
      1.457902  1.457902  0.000000    -0.353559   -0.353559   -0.000005  
      3.306916  3.306916  0.000000     0.353547    0.353547   -0.000010  
 
   2 f  =   18.740852 THz   117.752247 2PiTHz  625.127522 cm-1    77.505962 meV
             X         Y         Z           dx          dy          dz
      2.382409  2.382409  1.603750     0.000025    0.000025   -0.000009  
      0.000000  0.000000  0.000000     0.000012    0.000012   -0.000011  
      3.840311  0.924507  1.603750    -0.353540    0.353566    0.000005  
      0.924507  3.840311  1.603750     0.353566   -0.353540    0.000005  
      1.457902  1.457902  0.000000    -0.353619   -0.353619    0.000004  
      3.306916  3.306916  0.000000     0.353489    0.353489   -0.000009  
 
   3 f  =   17.961836 THz   112.857547 2PiTHz  599.142355 cm-1    74.284211 meV
             X         Y         Z           dx          dy          dz
      2.382409  2.382409  1.603750    -0.162436   -0.162436    0.000006  
      0.000000  0.000000  0.000000    -0.112099   -0.112099   -0.000003  
      3.840311  0.924507  1.603750    -0.096770   -0.096680    0.000009  
      0.924507  3.840311  1.603750    -0.096680   -0.096770    0.000009  
      1.457902  1.457902  0.000000     0.470232    0.470232   -0.000047  
      3.306916  3.306916  0.000000     0.470338    0.470338    0.000023  
 
   4 f  =   17.961830 THz   112.857508 2PiTHz  599.142147 cm-1    74.284186 meV
             X         Y         Z           dx          dy          dz
      2.382409  2.382409  1.603750     0.112100   -0.112100   -0.000000  
      0.000000  0.000000  0.000000     0.162435   -0.162435   -0.000000  
      3.840311  0.924507  1.603750    -0.470286    0.470286    0.000041  
      0.924507  3.840311  1.603750    -0.470286    0.470286   -0.000041  
      1.457902  1.457902  0.000000     0.096723   -0.096723   -0.000000  
      3.306916  3.306916  0.000000     0.096725   -0.096725    0.000000  
 
   5 f  =   16.825598 THz   105.718348 2PiTHz  561.241510 cm-1    69.585104 meV
             X         Y         Z           dx          dy          dz
      2.382409  2.382409  1.603750    -0.000004   -0.000004   -0.208480  
      0.000000  0.000000  0.000000    -0.000003   -0.000003    0.208480  
      3.840311  0.924507  1.603750     0.000002   -0.000003   -0.477772  
      0.924507  3.840311  1.603750    -0.000003    0.000002   -0.477772  
      1.457902  1.457902  0.000000     0.000003    0.000003    0.477771  
      3.306916  3.306916  0.000000     0.000018    0.000018    0.477781  
 
   6 f  =   13.961925 THz    87.725360 2PiTHz  465.719662 cm-1    57.741900 meV
             X         Y         Z           dx          dy          dz
      2.382409  2.382409  1.603750    -0.000032    0.000032    0.000000  
      0.000000  0.000000  0.000000     0.000013   -0.000013    0.000000  
      3.840311  0.924507  1.603750     0.000019   -0.000037    0.707107  
      0.924507  3.840311  1.603750     0.000037   -0.000019   -0.707107  
      1.457902  1.457902  0.000000    -0.000005    0.000005   -0.000000  
      3.306916  3.306916  0.000000    -0.000012    0.000012    0.000000  
 
   7 f  =   13.961923 THz    87.725348 2PiTHz  465.719599 cm-1    57.741892 meV
             X         Y         Z           dx          dy          dz
      2.382409  2.382409  1.603750    -0.000015   -0.000015    0.000067  
      0.000000  0.000000  0.000000     0.000032    0.000032    0.000059  
      3.840311  0.924507  1.603750     0.000008    0.000012   -0.000085  
      0.924507  3.840311  1.603750     0.000012    0.000008   -0.000085  
      1.457902  1.457902  0.000000    -0.000028   -0.000028   -0.707197  
      3.306916  3.306916  0.000000    -0.000018   -0.000018    0.707016  
 
   8 f  =   13.853180 THz    87.042095 2PiTHz  462.092322 cm-1    57.292167 meV
             X         Y         Z           dx          dy          dz
      2.382409  2.382409  1.603750     0.000002    0.000002   -0.326367  
      0.000000  0.000000  0.000000     0.000001    0.000001   -0.326379  
      3.840311  0.924507  1.603750     0.000001   -0.000007    0.443555  
      0.924507  3.840311  1.603750    -0.000007    0.000001    0.443555  
      1.457902  1.457902  0.000000     0.000004    0.000004    0.443415  
      3.306916  3.306916  0.000000    -0.000001   -0.000001    0.443693  
 
   9 f  =   10.409452 THz    65.404515 2PiTHz  347.221930 cm-1    43.050048 meV
             X         Y         Z           dx          dy          dz
      2.382409  2.382409  1.603750    -0.000007    0.000007    0.000000  
      0.000000  0.000000  0.000000     0.000006   -0.000006    0.000000  
      3.840311  0.924507  1.603750    -0.353549   -0.353548   -0.000013  
      0.924507  3.840311  1.603750     0.353548    0.353549    0.000013  
      1.457902  1.457902  0.000000     0.353557   -0.353557   -0.000000  
      3.306916  3.306916  0.000000    -0.353560    0.353560    0.000000  
 
  10 f  =    8.328555 THz    52.329852 2PiTHz  277.810672 cm-1    34.444146 meV
             X         Y         Z           dx          dy          dz
      2.382409  2.382409  1.603750     0.432412    0.432412   -0.000005  
      0.000000  0.000000  0.000000    -0.536337   -0.536337    0.000004  
      3.840311  0.924507  1.603750     0.107699    0.107692    0.000002  
      0.924507  3.840311  1.603750     0.107692    0.107699    0.000002  
      1.457902  1.457902  0.000000     0.032907    0.032907   -0.000034  
      3.306916  3.306916  0.000000     0.032905    0.032905    0.000032  
 
  11 f  =    8.328553 THz    52.329841 2PiTHz  277.810612 cm-1    34.444138 meV
             X         Y         Z           dx          dy          dz
      2.382409  2.382409  1.603750    -0.536344    0.536344   -0.000000  
      0.000000  0.000000  0.000000     0.432396   -0.432396    0.000000  
      3.840311  0.924507  1.603750     0.032904   -0.032904   -0.000032  
      0.924507  3.840311  1.603750     0.032904   -0.032904    0.000032  
      1.457902  1.457902  0.000000     0.107702   -0.107702   -0.000000  
      3.306916  3.306916  0.000000     0.107720   -0.107720    0.000000  
 
  12 f  =    6.481266 THz    40.722992 2PiTHz  216.191740 cm-1    26.804369 meV
             X         Y         Z           dx          dy          dz
      2.382409  2.382409  1.603750    -0.300464   -0.300464    0.000007  
      0.000000  0.000000  0.000000    -0.057583   -0.057583   -0.000016  
      3.840311  0.924507  1.603750     0.449517    0.449520    0.000001  
      0.924507  3.840311  1.603750     0.449520    0.449517    0.000001  
      1.457902  1.457902  0.000000     0.033702    0.033702    0.000017  
      3.306916  3.306916  0.000000     0.033701    0.033701   -0.000011  
 
  13 f  =    6.481249 THz    40.722890 2PiTHz  216.191197 cm-1    26.804302 meV
             X         Y         Z           dx          dy          dz
      2.382409  2.382409  1.603750    -0.057560    0.057560   -0.000000  
      0.000000  0.000000  0.000000    -0.300477    0.300477   -0.000000  
      3.840311  0.924507  1.603750     0.033705   -0.033695    0.000011  
      0.924507  3.840311  1.603750     0.033695   -0.033705   -0.000011  
      1.457902  1.457902  0.000000     0.449524   -0.449524    0.000000  
      3.306916  3.306916  0.000000     0.449507   -0.449507   -0.000000  
 
  14 f  =    4.330916 THz    27.211950 2PiTHz  144.463813 cm-1    17.911237 meV
             X         Y         Z           dx          dy          dz
      2.382409  2.382409  1.603750     0.000007    0.000007    0.675663  
      0.000000  0.000000  0.000000    -0.000004   -0.000004   -0.675686  
      3.840311  0.924507  1.603750    -0.000009   -0.000005   -0.147426  
      0.924507  3.840311  1.603750    -0.000005   -0.000009   -0.147426  
      1.457902  1.457902  0.000000     0.000001    0.000001    0.147411  
      3.306916  3.306916  0.000000    -0.000002   -0.000002    0.147406  
 
  15 f  =    2.220370 THz    13.950996 2PiTHz   74.063570 cm-1     9.182716 meV
             X         Y         Z           dx          dy          dz
      2.382409  2.382409  1.603750     0.000044   -0.000044    0.000000  
      0.000000  0.000000  0.000000     0.000061   -0.000061    0.000000  
      3.840311  0.924507  1.603750     0.353576    0.353541    0.000005  
      0.924507  3.840311  1.603750    -0.353541   -0.353576   -0.000005  
      1.457902  1.457902  0.000000     0.353560   -0.353560    0.000000  
      3.306916  3.306916  0.000000    -0.353537    0.353537    0.000000  
 
  16 f/i=    0.012026 THz     0.075560 2PiTHz    0.401136 cm-1     0.049735 meV
             X         Y         Z           dx          dy          dz
      2.382409  2.382409  1.603750    -0.000427   -0.000427    0.627296  
      0.000000  0.000000  0.000000    -0.000426   -0.000426    0.627265  
      3.840311  0.924507  1.603750    -0.000159   -0.000152    0.230778  
      0.924507  3.840311  1.603750    -0.000152   -0.000159    0.230778  
      1.457902  1.457902  0.000000    -0.000161   -0.000161    0.230781  
      3.306916  3.306916  0.000000    -0.000152   -0.000152    0.230784  
 
  17 f/i=    0.019705 THz     0.123813 2PiTHz    0.657303 cm-1     0.081495 meV
             X         Y         Z           dx          dy          dz
      2.382409  2.382409  1.603750    -0.443233    0.443233    0.000000  
      0.000000  0.000000  0.000000    -0.443127    0.443127    0.000000  
      3.840311  0.924507  1.603750    -0.163094    0.163175   -0.000003  
      0.924507  3.840311  1.603750    -0.163175    0.163094    0.000003  
      1.457902  1.457902  0.000000    -0.164212    0.164212    0.000000  
      3.306916  3.306916  0.000000    -0.164290    0.164290    0.000000  
 
  18 f/i=    0.019721 THz     0.123911 2PiTHz    0.657823 cm-1     0.081560 meV
             X         Y         Z           dx          dy          dz
      2.382409  2.382409  1.603750    -0.443120   -0.443120   -0.000605  
      0.000000  0.000000  0.000000    -0.443238   -0.443238   -0.000601  
      3.840311  0.924507  1.603750    -0.164252   -0.164252   -0.000221  
      0.924507  3.840311  1.603750    -0.164252   -0.164252   -0.000221  
      1.457902  1.457902  0.000000    -0.163134   -0.163134   -0.000226  
      3.306916  3.306916  0.000000    -0.163136   -0.163136   -0.000217  
 


--------------------------------------------------------------------------------------------------------




 MACROSCOPIC STATIC DIELECTRIC TENSOR IONIC CONTRIBUTION
 ------------------------------------------------------
           8.818428     0.000012     0.000053
           0.000012     8.818430     0.000053
           0.000053     0.000053     5.016484
 ------------------------------------------------------


 ELASTIC MODULI IONIC CONTR (kBar)
 Direction    XX          YY          ZZ          XY          YZ          ZX
 --------------------------------------------------------------------------------
 XX        -135.5722    120.4317    -40.0575     -0.3235    -10.5101    -11.7962
 YY         120.4317   -135.5722    -40.0575      0.3273     11.1277     11.1294
 ZZ         -40.0575    -40.0575   -211.9611      0.0139      1.6622     -1.7334
 XY          -0.3235      0.3273      0.0139    -33.9805     -1.2069      1.1643
 YZ         -10.5101     11.1277      1.6622     -1.2069   -204.0104     -1.0069
 ZX         -11.7962     11.1294     -1.7334      1.1643     -1.0069   -249.2216
 --------------------------------------------------------------------------------


 PIEZOELECTRIC TENSOR IONIC CONTR  for field in x, y, z        (C/m^2)
          XX          YY          ZZ          XY          YZ          ZX
  --------------------------------------------------------------------------------
  x     0.00003    -0.00003    -0.00001     0.00013     0.00001     0.00035
  y    -0.00005     0.00005    -0.00001     0.00013     0.00035     0.00001
  z    -0.00004    -0.00004     0.00104    -0.00002    -0.00008    -0.00008


--------------------------------------------------------------------------------------------------------


     LOOP+:  cpu time 1236.7576: real time 1244.0314
    4ORBIT:  cpu time    0.0000: real time    0.0000

 total amount of memory used by VASP MPI-rank0   112199. kBytes
=======================================================================

   base      :      30000. kBytes
   nonl-proj :      63297. kBytes
   fftplans  :       1221. kBytes
   grid      :       3058. kBytes
   one-center:         93. kBytes
   wavefun   :      14530. kBytes
 
  
  
 General timing and accounting informations for this job:
 ========================================================
  
                  Total CPU time used (sec):     1238.553
                            User time (sec):     1226.032
                          System time (sec):       12.522
                         Elapsed time (sec):     1245.933
  
                   Maximum memory used (kb):      408616.
                   Average memory used (kb):           0.
  
                          Minor page faults:      1333159
                          Major page faults:           13
                 Voluntary context switches:        11459
