<?xml version="1.0" encoding="ISO-8859-1"?>
<modeling>
 <generator>
  <i name="program" type="string">vasp </i>
  <i name="version" type="string">5.4.4.18Apr17-6-g9f103f2a35  </i>
  <i name="subversion" type="string">(build Aug 24 2017 11:22:49) complex            parallel </i>
  <i name="platform" type="string">LinuxIFC </i>
  <i name="date" type="string">2023 12 25 </i>
  <i name="time" type="string">13:07:11 </i>
 </generator>
 <incar>
  <i type="string" name="PREC">accurate</i>
  <i type="string" name="ALGO"> Normal</i>
  <i type="int" name="NELM">   100</i>
  <i type="int" name="IBRION">     8</i>
  <i name="EDIFF">      0.00000001</i>
  <i name="SYMPREC">      0.00000001</i>
  <i name="ENCUT">    520.00000000</i>
  <i type="logical" name="LREAL"> F  </i>
  <i type="int" name="ISMEAR">     0</i>
  <i name="SIGMA">      0.01000000</i>
  <i type="logical" name="LWAVE"> F  </i>
  <v type="int" name="KPOINT_BSE">    -1     0     0     0</v>
  <i type="int" name="NELM">   100</i>
  <i type="logical" name="LPEAD"> T  </i>
  <i type="logical" name="LEPSILON"> T  </i>
 </incar>
 <structure name="primitive_cell" >
  <crystal>
   <varray name="basis" >
    <v>       4.76481768       0.00000000       0.00000000 </v>
    <v>       0.00000000       4.76481768       0.00000000 </v>
    <v>       0.00000000       0.00000000       3.20749952 </v>
   </varray>
   <i name="volume">     72.82142539 </i>
   <varray name="rec_basis" >
    <v>       0.20987162       0.00000000       0.00000000 </v>
    <v>       0.00000000       0.20987162       0.00000000 </v>
    <v>       0.00000000       0.00000000       0.31176934 </v>
   </varray>
  </crystal>
  <varray name="positions" >
   <v>      -0.49999996      -0.49999996      -0.49999996 </v>
   <v>      -0.19402764       0.19402772      -0.49999996 </v>
   <v>       0.19402772      -0.19402764      -0.49999996 </v>
   <v>      -0.30597224      -0.30597224       0.00000000 </v>
   <v>       0.30597232       0.30597232       0.00000000 </v>
   <v>       0.00000000       0.00000000       0.00000000 </v>
  </varray>
 </structure>
 <varray name="primitive_index" >
  <v type="int" >        1 </v>
  <v type="int" >        3 </v>
  <v type="int" >        4 </v>
  <v type="int" >        6 </v>
  <v type="int" >        5 </v>
  <v type="int" >        2 </v>
 </varray>
 <kpoints>
  <generation param="Gamma">
   <v type="int" name="divisions">       6        6       10 </v>
   <v name="usershift">      0.00000000       0.00000000       0.00000000 </v>
   <v name="genvec1">      0.16666667       0.00000000       0.00000000 </v>
   <v name="genvec2">      0.00000000       0.16666667       0.00000000 </v>
   <v name="genvec3">      0.00000000       0.00000000       0.10000000 </v>
   <v name="shift">      0.00000000       0.00000000       0.00000000 </v>
  </generation>
  <varray name="kpointlist" >
   <v>       0.00000000       0.00000000       0.00000000 </v>
   <v>       0.16666667       0.00000000       0.00000000 </v>
   <v>       0.33333333       0.00000000       0.00000000 </v>
   <v>       0.50000000       0.00000000       0.00000000 </v>
   <v>       0.16666667       0.16666667       0.00000000 </v>
   <v>       0.33333333       0.16666667       0.00000000 </v>
   <v>       0.50000000       0.16666667       0.00000000 </v>
   <v>      -0.33333333       0.16666667       0.00000000 </v>
   <v>      -0.16666667       0.16666667       0.00000000 </v>
   <v>       0.33333333       0.33333333       0.00000000 </v>
   <v>       0.50000000       0.33333333       0.00000000 </v>
   <v>      -0.33333333       0.33333333       0.00000000 </v>
   <v>       0.50000000       0.50000000       0.00000000 </v>
   <v>       0.00000000       0.00000000       0.10000000 </v>
   <v>       0.16666667       0.00000000       0.10000000 </v>
   <v>       0.33333333       0.00000000       0.10000000 </v>
   <v>       0.50000000       0.00000000       0.10000000 </v>
   <v>      -0.33333333       0.00000000       0.10000000 </v>
   <v>      -0.16666667       0.00000000       0.10000000 </v>
   <v>       0.16666667       0.16666667       0.10000000 </v>
   <v>       0.33333333       0.16666667       0.10000000 </v>
   <v>       0.50000000       0.16666667       0.10000000 </v>
   <v>      -0.33333333       0.16666667       0.10000000 </v>
   <v>      -0.16666667       0.16666667       0.10000000 </v>
   <v>       0.33333333       0.33333333       0.10000000 </v>
   <v>       0.50000000       0.33333333       0.10000000 </v>
   <v>      -0.33333333       0.33333333       0.10000000 </v>
   <v>      -0.16666667       0.33333333       0.10000000 </v>
   <v>       0.50000000       0.50000000       0.10000000 </v>
   <v>      -0.33333333       0.50000000       0.10000000 </v>
   <v>      -0.16666667       0.50000000       0.10000000 </v>
   <v>      -0.33333333      -0.33333333       0.10000000 </v>
   <v>      -0.16666667      -0.33333333       0.10000000 </v>
   <v>      -0.16666667      -0.16666667       0.10000000 </v>
   <v>       0.00000000       0.00000000       0.20000000 </v>
   <v>       0.16666667       0.00000000       0.20000000 </v>
   <v>       0.33333333       0.00000000       0.20000000 </v>
   <v>       0.50000000       0.00000000       0.20000000 </v>
   <v>      -0.33333333       0.00000000       0.20000000 </v>
   <v>      -0.16666667       0.00000000       0.20000000 </v>
   <v>       0.16666667       0.16666667       0.20000000 </v>
   <v>       0.33333333       0.16666667       0.20000000 </v>
   <v>       0.50000000       0.16666667       0.20000000 </v>
   <v>      -0.33333333       0.16666667       0.20000000 </v>
   <v>      -0.16666667       0.16666667       0.20000000 </v>
   <v>       0.33333333       0.33333333       0.20000000 </v>
   <v>       0.50000000       0.33333333       0.20000000 </v>
   <v>      -0.33333333       0.33333333       0.20000000 </v>
   <v>      -0.16666667       0.33333333       0.20000000 </v>
   <v>       0.50000000       0.50000000       0.20000000 </v>
   <v>      -0.33333333       0.50000000       0.20000000 </v>
   <v>      -0.16666667       0.50000000       0.20000000 </v>
   <v>      -0.33333333      -0.33333333       0.20000000 </v>
   <v>      -0.16666667      -0.33333333       0.20000000 </v>
   <v>      -0.16666667      -0.16666667       0.20000000 </v>
   <v>       0.00000000       0.00000000       0.30000000 </v>
   <v>       0.16666667       0.00000000       0.30000000 </v>
   <v>       0.33333333       0.00000000       0.30000000 </v>
   <v>       0.50000000       0.00000000       0.30000000 </v>
   <v>      -0.33333333       0.00000000       0.30000000 </v>
   <v>      -0.16666667       0.00000000       0.30000000 </v>
   <v>       0.16666667       0.16666667       0.30000000 </v>
   <v>       0.33333333       0.16666667       0.30000000 </v>
   <v>       0.50000000       0.16666667       0.30000000 </v>
   <v>      -0.33333333       0.16666667       0.30000000 </v>
   <v>      -0.16666667       0.16666667       0.30000000 </v>
   <v>       0.33333333       0.33333333       0.30000000 </v>
   <v>       0.50000000       0.33333333       0.30000000 </v>
   <v>      -0.33333333       0.33333333       0.30000000 </v>
   <v>      -0.16666667       0.33333333       0.30000000 </v>
   <v>       0.50000000       0.50000000       0.30000000 </v>
   <v>      -0.33333333       0.50000000       0.30000000 </v>
   <v>      -0.16666667       0.50000000       0.30000000 </v>
   <v>      -0.33333333      -0.33333333       0.30000000 </v>
   <v>      -0.16666667      -0.33333333       0.30000000 </v>
   <v>      -0.16666667      -0.16666667       0.30000000 </v>
   <v>       0.00000000       0.00000000       0.40000000 </v>
   <v>       0.16666667       0.00000000       0.40000000 </v>
   <v>       0.33333333       0.00000000       0.40000000 </v>
   <v>       0.50000000       0.00000000       0.40000000 </v>
   <v>      -0.33333333       0.00000000       0.40000000 </v>
   <v>      -0.16666667       0.00000000       0.40000000 </v>
   <v>       0.16666667       0.16666667       0.40000000 </v>
   <v>       0.33333333       0.16666667       0.40000000 </v>
   <v>       0.50000000       0.16666667       0.40000000 </v>
   <v>      -0.33333333       0.16666667       0.40000000 </v>
   <v>      -0.16666667       0.16666667       0.40000000 </v>
   <v>       0.33333333       0.33333333       0.40000000 </v>
   <v>       0.50000000       0.33333333       0.40000000 </v>
   <v>      -0.33333333       0.33333333       0.40000000 </v>
   <v>      -0.16666667       0.33333333       0.40000000 </v>
   <v>       0.50000000       0.50000000       0.40000000 </v>
   <v>      -0.33333333       0.50000000       0.40000000 </v>
   <v>      -0.16666667       0.50000000       0.40000000 </v>
   <v>      -0.33333333      -0.33333333       0.40000000 </v>
   <v>      -0.16666667      -0.33333333       0.40000000 </v>
   <v>      -0.16666667      -0.16666667       0.40000000 </v>
   <v>       0.00000000       0.00000000       0.50000000 </v>
   <v>       0.16666667       0.00000000       0.50000000 </v>
   <v>       0.33333333       0.00000000       0.50000000 </v>
   <v>       0.50000000       0.00000000       0.50000000 </v>
   <v>       0.16666667       0.16666667       0.50000000 </v>
   <v>       0.33333333       0.16666667       0.50000000 </v>
   <v>       0.50000000       0.16666667       0.50000000 </v>
   <v>      -0.33333333       0.16666667       0.50000000 </v>
   <v>      -0.16666667       0.16666667       0.50000000 </v>
   <v>       0.33333333       0.33333333       0.50000000 </v>
   <v>       0.50000000       0.33333333       0.50000000 </v>
   <v>      -0.33333333       0.33333333       0.50000000 </v>
   <v>       0.50000000       0.50000000       0.50000000 </v>
  </varray>
  <varray name="weights" >
   <v>       0.00277778 </v>
   <v>       0.01111111 </v>
   <v>       0.01111111 </v>
   <v>       0.00555556 </v>
   <v>       0.00555556 </v>
   <v>       0.01111111 </v>
   <v>       0.01111111 </v>
   <v>       0.01111111 </v>
   <v>       0.00555556 </v>
   <v>       0.00555556 </v>
   <v>       0.01111111 </v>
   <v>       0.00555556 </v>
   <v>       0.00277778 </v>
   <v>       0.00555556 </v>
   <v>       0.01111111 </v>
   <v>       0.01111111 </v>
   <v>       0.01111111 </v>
   <v>       0.01111111 </v>
   <v>       0.01111111 </v>
   <v>       0.00555556 </v>
   <v>       0.01111111 </v>
   <v>       0.01111111 </v>
   <v>       0.01111111 </v>
   <v>       0.01111111 </v>
   <v>       0.00555556 </v>
   <v>       0.01111111 </v>
   <v>       0.01111111 </v>
   <v>       0.01111111 </v>
   <v>       0.00555556 </v>
   <v>       0.01111111 </v>
   <v>       0.01111111 </v>
   <v>       0.00555556 </v>
   <v>       0.01111111 </v>
   <v>       0.00555556 </v>
   <v>       0.00555556 </v>
   <v>       0.01111111 </v>
   <v>       0.01111111 </v>
   <v>       0.01111111 </v>
   <v>       0.01111111 </v>
   <v>       0.01111111 </v>
   <v>       0.00555556 </v>
   <v>       0.01111111 </v>
   <v>       0.01111111 </v>
   <v>       0.01111111 </v>
   <v>       0.01111111 </v>
   <v>       0.00555556 </v>
   <v>       0.01111111 </v>
   <v>       0.01111111 </v>
   <v>       0.01111111 </v>
   <v>       0.00555556 </v>
   <v>       0.01111111 </v>
   <v>       0.01111111 </v>
   <v>       0.00555556 </v>
   <v>       0.01111111 </v>
   <v>       0.00555556 </v>
   <v>       0.00555556 </v>
   <v>       0.01111111 </v>
   <v>       0.01111111 </v>
   <v>       0.01111111 </v>
   <v>       0.01111111 </v>
   <v>       0.01111111 </v>
   <v>       0.00555556 </v>
   <v>       0.01111111 </v>
   <v>       0.01111111 </v>
   <v>       0.01111111 </v>
   <v>       0.01111111 </v>
   <v>       0.00555556 </v>
   <v>       0.01111111 </v>
   <v>       0.01111111 </v>
   <v>       0.01111111 </v>
   <v>       0.00555556 </v>
   <v>       0.01111111 </v>
   <v>       0.01111111 </v>
   <v>       0.00555556 </v>
   <v>       0.01111111 </v>
   <v>       0.00555556 </v>
   <v>       0.00555556 </v>
   <v>       0.01111111 </v>
   <v>       0.01111111 </v>
   <v>       0.01111111 </v>
   <v>       0.01111111 </v>
   <v>       0.01111111 </v>
   <v>       0.00555556 </v>
   <v>       0.01111111 </v>
   <v>       0.01111111 </v>
   <v>       0.01111111 </v>
   <v>       0.01111111 </v>
   <v>       0.00555556 </v>
   <v>       0.01111111 </v>
   <v>       0.01111111 </v>
   <v>       0.01111111 </v>
   <v>       0.00555556 </v>
   <v>       0.01111111 </v>
   <v>       0.01111111 </v>
   <v>       0.00555556 </v>
   <v>       0.01111111 </v>
   <v>       0.00555556 </v>
   <v>       0.00277778 </v>
   <v>       0.01111111 </v>
   <v>       0.01111111 </v>
   <v>       0.00555556 </v>
   <v>       0.00555556 </v>
   <v>       0.01111111 </v>
   <v>       0.01111111 </v>
   <v>       0.01111111 </v>
   <v>       0.00555556 </v>
   <v>       0.00555556 </v>
   <v>       0.01111111 </v>
   <v>       0.00555556 </v>
   <v>       0.00277778 </v>
  </varray>
 </kpoints>
 <parameters>
  <separator name="general" >
   <i type="string" name="SYSTEM">unknown system</i>
   <i type="logical" name="LCOMPAT"> F  </i>
  </separator>
  <separator name="electronic" >
   <i type="string" name="PREC">accura</i>
   <i name="ENMAX">    520.00000000</i>
   <i name="ENAUG">    605.39200000</i>
   <i name="EDIFF">      0.00000001</i>
   <i type="int" name="IALGO">    38</i>
   <i type="int" name="IWAVPR">    11</i>
   <i type="int" name="NBANDS">    32</i>
   <i name="NELECT">     52.00000000</i>
   <i type="int" name="TURBO">     0</i>
   <i type="int" name="IRESTART">     0</i>
   <i type="int" name="NREBOOT">     0</i>
   <i type="int" name="NMIN">     0</i>
   <i name="EREF">      0.00000000</i>
   <separator name="electronic smearing" >
    <i type="int" name="ISMEAR">     0</i>
    <i name="SIGMA">      0.01000000</i>
    <i name="KSPACING">      0.50000000</i>
    <i type="logical" name="KGAMMA"> T  </i>
   </separator>
   <separator name="electronic projectors" >
    <i type="logical" name="LREAL"> F  </i>
    <v name="ROPT">      0.00000000      0.00000000</v>
    <i type="int" name="LMAXPAW">  -100</i>
    <i type="int" name="LMAXMIX">     2</i>
    <i type="logical" name="NLSPLINE"> F  </i>
   </separator>
   <separator name="electronic startup" >
    <i type="int" name="ISTART">     0</i>
    <i type="int" name="ICHARG">     2</i>
    <i type="int" name="INIWAV">     1</i>
   </separator>
   <separator name="electronic spin" >
    <i type="int" name="ISPIN">     1</i>
    <i type="logical" name="LNONCOLLINEAR"> F  </i>
    <v name="MAGMOM">      1.00000000      1.00000000      1.00000000      1.00000000      1.00000000      1.00000000</v>
    <i name="NUPDOWN">     -1.00000000</i>
    <i type="logical" name="LSORBIT"> F  </i>
    <v name="SAXIS">      0.00000000      0.00000000      1.00000000</v>
    <i type="logical" name="LSPIRAL"> F  </i>
    <v name="QSPIRAL">      0.00000000      0.00000000      0.00000000</v>
    <i type="logical" name="LZEROZ"> F  </i>
   </separator>
   <separator name="electronic exchange-correlation" >
    <i type="logical" name="LASPH"> F  </i>
    <i type="logical" name="LMETAGGA"> F  </i>
   </separator>
   <separator name="electronic convergence" >
    <i type="int" name="NELM">   100</i>
    <i type="int" name="NELMDL">    -5</i>
    <i type="int" name="NELMIN">     2</i>
    <i name="ENINI">    520.00000000</i>
    <separator name="electronic convergence detail" >
     <i type="logical" name="LDIAG"> T  </i>
     <i type="logical" name="LSUBROT"> F  </i>
     <i name="WEIMIN">      0.00100000</i>
     <i name="EBREAK">      0.00000000</i>
     <i name="DEPER">      0.30000000</i>
     <i type="int" name="NRMM">     4</i>
     <i name="TIME">      0.40000000</i>
    </separator>
   </separator>
   <separator name="electronic mixer" >
    <i name="AMIX">      0.40000000</i>
    <i name="BMIX">      1.00000000</i>
    <i name="AMIN">      0.10000000</i>
    <i name="AMIX_MAG">      1.60000000</i>
    <i name="BMIX_MAG">      1.00000000</i>
    <separator name="electronic mixer details" >
     <i type="int" name="IMIX">     4</i>
     <i type="logical" name="MIXFIRST"> F  </i>
     <i type="int" name="MAXMIX">   -45</i>
     <i name="WC">    100.00000000</i>
     <i type="int" name="INIMIX">     1</i>
     <i type="int" name="MIXPRE">     1</i>
     <i type="int" name="MREMOVE">     5</i>
    </separator>
   </separator>
   <separator name="electronic dipolcorrection" >
    <i type="logical" name="LDIPOL"> F  </i>
    <i type="logical" name="LMONO"> F  </i>
    <i type="int" name="IDIPOL">     0</i>
    <i name="EPSILON">      1.00000000</i>
    <v name="DIPOL">   -100.00000000   -100.00000000   -100.00000000</v>
    <i name="EFIELD">      0.00000000</i>
   </separator>
  </separator>
  <separator name="grids" >
   <i type="int" name="NGX">    36</i>
   <i type="int" name="NGY">    36</i>
   <i type="int" name="NGZ">    24</i>
   <i type="int" name="NGXF">    72</i>
   <i type="int" name="NGYF">    72</i>
   <i type="int" name="NGZF">    48</i>
   <i type="logical" name="ADDGRID"> F  </i>
  </separator>
  <separator name="ionic" >
   <i type="int" name="NSW">     1</i>
   <i type="int" name="IBRION">     8</i>
   <i type="int" name="MDALGO">     0</i>
   <i type="int" name="ISIF">     2</i>
   <i name="PSTRESS">      0.00000000</i>
   <i name="EDIFFG">      0.00000010</i>
   <i type="int" name="NFREE">     0</i>
   <i name="POTIM">      0.50000000</i>
   <i name="SMASS">     -3.00000000</i>
   <i name="SCALEE">      1.00000000</i>
  </separator>
  <separator name="ionic md" >
   <i name="TEBEG">      0.00010000</i>
   <i name="TEEND">      0.00010000</i>
   <i type="int" name="NBLOCK">     1</i>
   <i type="int" name="KBLOCK">     1</i>
   <i type="int" name="NPACO">   256</i>
   <i name="APACO">     16.00000000</i>
  </separator>
  <separator name="symmetry" >
   <i type="int" name="ISYM">     2</i>
   <i name="SYMPREC">      0.00000001</i>
  </separator>
  <separator name="dos" >
   <i type="int" name="LORBIT">     0</i>
   <v name="RWIGS">     -1.00000000     -1.00000000</v>
   <i type="int" name="NEDOS">   301</i>
   <i name="EMIN">     10.00000000</i>
   <i name="EMAX">    -10.00000000</i>
   <i name="EFERMI">      0.00000000</i>
  </separator>
  <separator name="writing" >
   <i type="int" name="NWRITE">     2</i>
   <i type="logical" name="LWAVE"> F  </i>
   <i type="logical" name="LDOWNSAMPLE"> F  </i>
   <i type="logical" name="LCHARG"> T  </i>
   <i type="logical" name="LPARD"> F  </i>
   <i type="logical" name="LVTOT"> F  </i>
   <i type="logical" name="LVHAR"> F  </i>
   <i type="logical" name="LELF"> F  </i>
   <i type="logical" name="LOPTICS"> F  </i>
   <v name="STM">      0.00000000      0.00000000      0.00000000      0.00000000      0.00000000      0.00000000      0.00000000</v>
  </separator>
  <separator name="performance" >
   <i type="int" name="NPAR">     8</i>
   <i type="int" name="NSIM">     4</i>
   <i type="int" name="NBLK">    -1</i>
   <i type="logical" name="LPLANE"> T  </i>
   <i type="logical" name="LSCALAPACK"> T  </i>
   <i type="logical" name="LSCAAWARE"> F  </i>
   <i type="logical" name="LSCALU"> F  </i>
   <i type="logical" name="LASYNC"> F  </i>
   <i type="logical" name="LORBITALREAL"> F  </i>
  </separator>
  <separator name="miscellaneous" >
   <i type="int" name="IDIOT">     3</i>
   <i type="int" name="ISPECIAL">     0</i>
   <i type="logical" name="LMUSIC"> F  </i>
   <v name="POMASS">    118.71000000     16.00000000</v>
   <v name="DARWINR">      0.00000000      0.00000000</v>
   <v name="DARWINV">      1.00000000      1.00000000</v>
   <i type="logical" name="LCORR"> T  </i>
  </separator>
  <i type="logical" name="GGA_COMPAT"> T  </i>
  <i type="logical" name="LBERRY"> F  </i>
  <i type="int" name="ICORELEVEL">     0</i>
  <i type="logical" name="LDAU"> F  </i>
  <i type="int" name="I_CONSTRAINED_M">     0</i>
  <separator name="electronic exchange-correlation" >
   <i type="string" name="GGA">--</i>
   <i type="int" name="VOSKOWN">     0</i>
   <i type="logical" name="LHFCALC"> F  </i>
   <i type="string" name="PRECFOCK"></i>
   <i type="logical" name="LSYMGRAD"> F  </i>
   <i type="logical" name="LHFONE"> F  </i>
   <i type="logical" name="LRHFCALC"> F  </i>
   <i type="logical" name="LTHOMAS"> F  </i>
   <i type="logical" name="LMODELHF"> F  </i>
   <i name="ENCUT4O">     -1.00000000</i>
   <i type="int" name="EXXOEP">     0</i>
   <i type="int" name="FOURORBIT">     0</i>
   <i name="AEXX">      0.00000000</i>
   <i name="HFALPHA">      0.00000000</i>
   <i name="MCALPHA">      0.00000000</i>
   <i name="ALDAX">      1.00000000</i>
   <i name="AGGAX">      1.00000000</i>
   <i name="ALDAC">      1.00000000</i>
   <i name="AGGAC">      1.00000000</i>
   <i type="int" name="NKREDX">     1</i>
   <i type="int" name="NKREDY">     1</i>
   <i type="int" name="NKREDZ">     1</i>
   <i type="logical" name="SHIFTRED"> F  </i>
   <i type="logical" name="ODDONLY"> F  </i>
   <i type="logical" name="EVENONLY"> F  </i>
   <i type="int" name="LMAXFOCK">     0</i>
   <i type="int" name="NMAXFOCKAE">     0</i>
   <i type="logical" name="LFOCKAEDFT"> F  </i>
   <i name="HFSCREEN">      0.00000000</i>
   <i name="HFSCREENC">      0.00000000</i>
   <i type="int" name="NBANDSGWLOW">     0</i>
  </separator>
  <separator name="vdW DFT" >
   <i type="logical" name="LUSE_VDW"> F  </i>
   <i name="Zab_VDW">     -0.84910000</i>
   <i name="PARAM1">      0.12340000</i>
   <i name="PARAM2">      1.00000000</i>
   <i name="PARAM3">      0.00000000</i>
  </separator>
  <separator name="model GW" >
   <i type="int" name="MODEL_GW">     0</i>
   <i name="MODEL_EPS0">      7.28214254</i>
   <i name="MODEL_ALPHA">      1.00000000</i>
  </separator>
  <separator name="linear response parameters" >
   <i type="logical" name="LEPSILON"> T  </i>
   <i type="logical" name="LRPA"> F  </i>
   <i type="logical" name="LNABLA"> F  </i>
   <i type="logical" name="LVEL"> F  </i>
   <i type="int" name="KINTER">     0</i>
   <i name="CSHIFT">      0.10000000</i>
   <i name="OMEGAMAX">     -1.00000000</i>
   <i name="DEG_THRESHOLD">      0.00200000</i>
   <i name="RTIME">     -0.10000000</i>
   <i name="WPLASMAI">      0.00000000</i>
   <v name="DFIELD">      0.00000000      0.00000000      0.00000000</v>
   <v name="WPLASMA">      0.00000000      0.00000000      0.00000000      0.00000000      0.00000000      0.00000000      0.00000000      0.00000000      0.00000000</v>
  </separator>
  <separator name="orbital magnetization" >
   <i type="logical" name="NUCIND"> F  </i>
   <v name="MAGPOS">      0.00000000      0.00000000      0.00000000</v>
   <i type="logical" name="LNICSALL"> T  </i>
   <i type="logical" name="ORBITALMAG"> F  </i>
   <i type="logical" name="LMAGBLOCH"> F  </i>
   <i type="logical" name="LCHIMAG"> F  </i>
   <i type="logical" name="LGAUGE"> T  </i>
   <i type="int" name="MAGATOM">     0</i>
   <v name="MAGDIPOL">      0.00000000      0.00000000      0.00000000</v>
   <v name="AVECCONST">      0.00000000      0.00000000      0.00000000</v>
  </separator>
  <separator name="response functions" >
   <i type="logical" name="LADDER"> F  </i>
   <i type="logical" name="LRPAFORCE"> F  </i>
   <i type="logical" name="LFXC"> F  </i>
   <i type="logical" name="LHARTREE"> T  </i>
   <i type="int" name="IBSE">     0</i>
   <v type="int" name="KPOINT">    -1     0     0     0</v>
   <i type="logical" name="LTCTE"> F  </i>
   <i type="logical" name="LTETE"> F  </i>
   <i type="logical" name="LTRIPLET"> F  </i>
   <i type="logical" name="LFXCEPS"> F  </i>
   <i type="logical" name="LFXHEG"> F  </i>
   <i type="int" name="NATURALO">     2</i>
   <i type="logical" name="L2ORDER"> F  </i>
   <i type="logical" name="LMP2LT"> F  </i>
   <i type="logical" name="LUSEW"> F  </i>
   <i name="ENCUTGW">     -2.00000000</i>
   <i name="ENCUTGWSOFT">     -2.00000000</i>
   <i name="ENCUTLF">     -1.00000000</i>
   <i type="int" name="LMAXMP2">    -1</i>
   <i name="SCISSOR">      0.00000000</i>
   <i type="int" name="NOMEGA">     0</i>
   <i type="int" name="NOMEGAR">     0</i>
   <i type="int" name="NBANDSGW">    -1</i>
   <i type="int" name="NBANDSO">    -1</i>
   <i type="int" name="NBANDSV">    -1</i>
   <i type="int" name="NELM">   100</i>
   <i type="int" name="NELMHF">     1</i>
   <i type="int" name="DIM">     3</i>
   <i type="int" name="ANTIRES">     0</i>
   <i name="OMEGAMAX">    -30.00000000</i>
   <i name="OMEGAMIN">    -30.00000000</i>
   <i name="OMEGATL">   -200.00000000</i>
   <i type="int" name="OMEGAGRID">   140</i>
   <i name="CSHIFT">     -0.10000000</i>
   <i type="logical" name="SELFENERGY"> F  </i>
   <i type="logical" name="LSPECTRAL"> F  </i>
   <i type="logical" name="LSPECTRALGW"> F  </i>
   <i type="logical" name="LSINGLES"> F  </i>
   <i type="logical" name="LFERMIGW"> F  </i>
   <i type="logical" name="ODDONLYGW"> F  </i>
   <i type="logical" name="EVENONLYGW"> F  </i>
   <i type="int" name="NKREDLFX">     1</i>
   <i type="int" name="NKREDLFY">     1</i>
   <i type="int" name="NKREDLFZ">     1</i>
   <i type="int" name="MAXMEM">  2800</i>
   <i type="int" name="TELESCOPE">     0</i>
   <i type="int" name="TAUPAR">     1</i>
   <i type="int" name="OMEGAPAR">    -1</i>
   <i name="LAMBDA">      1.00000000</i>
  </separator>
  <separator name="External order field" >
   <i name="OFIELD_KAPPA">      0.00000000</i>
   <v name="OFIELD_K">      0.00000000      0.00000000      0.00000000</v>
   <i name="OFIELD_Q6_NEAR">      0.00000000</i>
   <i name="OFIELD_Q6_FAR">      0.00000000</i>
   <i name="OFIELD_A">      0.00000000</i>
  </separator>
 </parameters>
 <atominfo>
  <atoms>       6 </atoms>
  <types>       2 </types>
  <array name="atoms" >
   <dimension dim="1">ion</dimension>
   <field type="string">element</field>
   <field type="int">atomtype</field>
   <set>
    <rc><c>Sn</c><c>   1</c></rc>
    <rc><c>Sn</c><c>   1</c></rc>
    <rc><c>O </c><c>   2</c></rc>
    <rc><c>O </c><c>   2</c></rc>
    <rc><c>O </c><c>   2</c></rc>
    <rc><c>O </c><c>   2</c></rc>
   </set>
  </array>
  <array name="atomtypes" >
   <dimension dim="1">type</dimension>
   <field type="int">atomspertype</field>
   <field type="string">element</field>
   <field>mass</field>
   <field>valence</field>
   <field type="string">pseudopotential</field>
   <set>
    <rc><c>   2</c><c>Sn</c><c>    118.71000000</c><c>     14.00000000</c><c>  PAW_PBE Sn_d 06Sep2000                </c></rc>
    <rc><c>   4</c><c>O </c><c>     16.00000000</c><c>      6.00000000</c><c>  PAW_PBE O 08Apr2002                   </c></rc>
   </set>
  </array>
 </atominfo>
 <structure name="initialpos" >
  <crystal>
   <varray name="basis" >
    <v>       4.76481768       0.00000000       0.00000000 </v>
    <v>       0.00000000       4.76481768       0.00000000 </v>
    <v>       0.00000000       0.00000000       3.20749952 </v>
   </varray>
   <i name="volume">     72.82142539 </i>
   <varray name="rec_basis" >
    <v>       0.20987162       0.00000000       0.00000000 </v>
    <v>       0.00000000       0.20987162       0.00000000 </v>
    <v>       0.00000000       0.00000000       0.31176934 </v>
   </varray>
  </crystal>
  <varray name="positions" >
   <v>       0.50000004       0.50000004       0.50000004 </v>
   <v>       0.00000000       0.00000000       0.00000000 </v>
   <v>       0.80597236       0.19402772       0.50000004 </v>
   <v>       0.19402772       0.80597236       0.50000004 </v>
   <v>       0.30597232       0.30597232       0.00000000 </v>
   <v>       0.69402776       0.69402776       0.00000000 </v>
  </varray>
 </structure>
 <calculation>
  <scstep>
   <time name="dav">    2.36    2.37</time>
   <time name="total">    2.38    2.39</time>
   <energy>
    <i name="alphaZ">    180.38768962 </i>
    <i name="ewald">  -4160.16053760 </i>
    <i name="hartreedc">  -1382.40445812 </i>
    <i name="XCdc">    227.15982071 </i>
    <i name="pawpsdc">   4523.96198671 </i>
    <i name="pawaedc">  -4605.61875434 </i>
    <i name="eentropy">     -0.00008901 </i>
    <i name="bandstr">    339.83610996 </i>
    <i name="atom">   5515.64520068 </i>
    <i name="e_fr_energy">    638.80696859 </i>
    <i name="e_wo_entrp">    638.80705761 </i>
    <i name="e_0_energy">    638.80701310 </i>
   </energy>
  </scstep>
  <scstep>
   <time name="dav">    2.51    2.52</time>
   <time name="total">    2.51    2.52</time>
   <energy>
    <i name="e_fr_energy">     52.55008357 </i>
    <i name="e_wo_entrp">     52.55013355 </i>
    <i name="e_0_energy">     52.55010856 </i>
   </energy>
  </scstep>
  <scstep>
   <time name="dav">    2.44    2.46</time>
   <time name="total">    2.44    2.46</time>
   <energy>
    <i name="e_fr_energy">    -38.83724143 </i>
    <i name="e_wo_entrp">    -38.83724143 </i>
    <i name="e_0_energy">    -38.83724143 </i>
   </energy>
  </scstep>
  <scstep>
   <time name="dav">    2.48    2.49</time>
   <time name="total">    2.48    2.49</time>
   <energy>
    <i name="e_fr_energy">    -43.31551203 </i>
    <i name="e_wo_entrp">    -43.31551203 </i>
    <i name="e_0_energy">    -43.31551203 </i>
   </energy>
  </scstep>
  <scstep>
   <time name="dav">    2.56    2.58</time>
   <time name="total">    2.75    2.77</time>
   <energy>
    <i name="e_fr_energy">    -43.45151796 </i>
    <i name="e_wo_entrp">    -43.45151796 </i>
    <i name="e_0_energy">    -43.45151796 </i>
   </energy>
  </scstep>
  <scstep>
   <time name="dav">    3.10    3.11</time>
   <time name="total">    3.35    3.36</time>
   <energy>
    <i name="e_fr_energy">    -37.14913201 </i>
    <i name="e_wo_entrp">    -37.14913201 </i>
    <i name="e_0_energy">    -37.14913201 </i>
   </energy>
  </scstep>
  <scstep>
   <time name="dav">    2.39    2.42</time>
   <time name="total">    2.63    2.67</time>
   <energy>
    <i name="e_fr_energy">    -37.26749822 </i>
    <i name="e_wo_entrp">    -37.26749822 </i>
    <i name="e_0_energy">    -37.26749822 </i>
   </energy>
  </scstep>
  <scstep>
   <time name="dav">    3.14    3.17</time>
   <time name="total">    3.34    3.37</time>
   <energy>
    <i name="e_fr_energy">    -37.24845850 </i>
    <i name="e_wo_entrp">    -37.24845850 </i>
    <i name="e_0_energy">    -37.24845850 </i>
   </energy>
  </scstep>
  <scstep>
   <time name="dav">    3.48    3.51</time>
   <time name="total">    3.68    3.71</time>
   <energy>
    <i name="e_fr_energy">    -37.23699479 </i>
    <i name="e_wo_entrp">    -37.23699479 </i>
    <i name="e_0_energy">    -37.23699479 </i>
   </energy>
  </scstep>
  <scstep>
   <time name="dav">    2.97    3.00</time>
   <time name="total">    3.17    3.20</time>
   <energy>
    <i name="e_fr_energy">    -37.23766377 </i>
    <i name="e_wo_entrp">    -37.23766377 </i>
    <i name="e_0_energy">    -37.23766377 </i>
   </energy>
  </scstep>
  <scstep>
   <time name="dav">    2.98    3.00</time>
   <time name="total">    3.20    3.21</time>
   <energy>
    <i name="e_fr_energy">    -37.23777972 </i>
    <i name="e_wo_entrp">    -37.23777972 </i>
    <i name="e_0_energy">    -37.23777972 </i>
   </energy>
  </scstep>
  <scstep>
   <time name="dav">    2.62    2.63</time>
   <time name="total">    2.84    2.85</time>
   <energy>
    <i name="e_fr_energy">    -37.23778351 </i>
    <i name="e_wo_entrp">    -37.23778351 </i>
    <i name="e_0_energy">    -37.23778351 </i>
   </energy>
  </scstep>
  <scstep>
   <time name="dav">    3.06    3.08</time>
   <time name="total">    3.26    3.28</time>
   <energy>
    <i name="e_fr_energy">    -37.23778050 </i>
    <i name="e_wo_entrp">    -37.23778050 </i>
    <i name="e_0_energy">    -37.23778050 </i>
   </energy>
  </scstep>
  <scstep>
   <time name="dav">    2.52    2.53</time>
   <time name="total">    2.74    2.75</time>
   <energy>
    <i name="e_fr_energy">    -37.23778023 </i>
    <i name="e_wo_entrp">    -37.23778023 </i>
    <i name="e_0_energy">    -37.23778023 </i>
   </energy>
  </scstep>
  <scstep>
   <time name="dav">    2.92    2.94</time>
   <time name="total">    3.12    3.15</time>
   <energy>
    <i name="e_fr_energy">    -37.23778025 </i>
    <i name="e_wo_entrp">    -37.23778025 </i>
    <i name="e_0_energy">    -37.23778025 </i>
   </energy>
  </scstep>
  <scstep>
   <time name="dav">    1.97    1.99</time>
   <time name="total">    2.18    2.19</time>
   <energy>
    <i name="e_fr_energy">    -37.23778023 </i>
    <i name="e_wo_entrp">    -37.23778023 </i>
    <i name="e_0_energy">    -37.23778023 </i>
   </energy>
  </scstep>
  <scstep>
   <time name="dav">    2.01    2.01</time>
   <time name="total">    2.21    2.21</time>
   <energy>
    <i name="e_fr_energy">    -37.23778027 </i>
    <i name="e_wo_entrp">    -37.23778027 </i>
    <i name="e_0_energy">    -37.23778027 </i>
   </energy>
  </scstep>
  <scstep>
   <time name="dav">    1.99    2.00</time>
   <time name="total">    2.19    2.20</time>
   <energy>
    <i name="e_fr_energy">    -37.23778028 </i>
    <i name="e_wo_entrp">    -37.23778028 </i>
    <i name="e_0_energy">    -37.23778028 </i>
   </energy>
  </scstep>
  <scstep>
   <time name="dav">    1.90    1.91</time>
   <time name="total">    1.92    1.93</time>
   <energy>
    <i name="alphaZ">    180.38768962 </i>
    <i name="ewald">  -4160.16053760 </i>
    <i name="hartreedc">  -1422.21920164 </i>
    <i name="XCdc">    231.11431246 </i>
    <i name="pawpsdc">   6598.77150313 </i>
    <i name="pawaedc">  -6679.69635754 </i>
    <i name="eentropy">     -0.00000000 </i>
    <i name="bandstr">   -301.08038939 </i>
    <i name="atom">   5515.64520068 </i>
    <i name="e_fr_energy">    -37.23778028 </i>
    <i name="e_wo_entrp">    -37.23778028 </i>
    <i name="e_0_energy">    -37.23778028 </i>
   </energy>
  </scstep>
  <structure>
   <crystal>
    <varray name="basis" >
     <v>       4.76481768       0.00000000       0.00000000 </v>
     <v>       0.00000000       4.76481768       0.00000000 </v>
     <v>       0.00000000       0.00000000       3.20749952 </v>
    </varray>
    <i name="volume">     72.82142539 </i>
    <varray name="rec_basis" >
     <v>       0.20987162       0.00000000       0.00000000 </v>
     <v>       0.00000000       0.20987162       0.00000000 </v>
     <v>       0.00000000       0.00000000       0.31176934 </v>
    </varray>
   </crystal>
   <varray name="positions" >
    <v>       0.50000004       0.50000004       0.50000004 </v>
    <v>       0.00000000       0.00000000       0.00000000 </v>
    <v>       0.80597236       0.19402772       0.50000004 </v>
    <v>       0.19402772       0.80597236       0.50000004 </v>
    <v>       0.30597232       0.30597232       0.00000000 </v>
    <v>       0.69402776       0.69402776       0.00000000 </v>
   </varray>
  </structure>
  <varray name="forces" >
   <v>      -0.00000160      -0.00000160      -0.00000232 </v>
   <v>       0.00000409       0.00000409       0.00000237 </v>
   <v>      -0.02773248       0.02773218      -0.00000162 </v>
   <v>       0.02773218      -0.02773248      -0.00000162 </v>
   <v>      -0.02772778      -0.02772778       0.00000203 </v>
   <v>       0.02772559       0.02772559       0.00000115 </v>
  </varray>
  <varray name="stress" >
   <v>      69.49963609       0.00009376       0.00000177 </v>
   <v>       0.00009376      69.49963609       0.00000177 </v>
   <v>       0.00000208       0.00000208      84.03412164 </v>
  </varray>
  <energy>
   <i name="e_fr_energy">    -37.23778028 </i>
   <i name="e_wo_entrp">    -37.23778028 </i>
   <i name="e_0_energy">     -0.00000000 </i>
  </energy>
  <scstep>
   <time name="total">    2.29    2.30</time>
   <energy>
    <i name="e_fr_energy">     -0.21138262 </i>
    <i name="e_wo_entrp">     -0.21138262 </i>
    <i name="e_0_energy">     -0.21138262 </i>
   </energy>
  </scstep>
  <scstep>
   <time name="total">    2.87    2.89</time>
   <energy>
    <i name="e_fr_energy">     -0.66166204 </i>
    <i name="e_wo_entrp">     -0.66166204 </i>
    <i name="e_0_energy">     -0.66166204 </i>
   </energy>
  </scstep>
  <scstep>
   <time name="total">    2.81    2.82</time>
   <energy>
    <i name="e_fr_energy">     -0.66373477 </i>
    <i name="e_wo_entrp">     -0.66373477 </i>
    <i name="e_0_energy">     -0.66373477 </i>
   </energy>
  </scstep>
  <scstep>
   <time name="total">    2.78    2.79</time>
   <energy>
    <i name="e_fr_energy">     -0.66391156 </i>
    <i name="e_wo_entrp">     -0.66391156 </i>
    <i name="e_0_energy">     -0.66391156 </i>
   </energy>
  </scstep>
  <scstep>
   <time name="total">    2.95    2.95</time>
   <energy>
    <i name="e_fr_energy">     -0.66393377 </i>
    <i name="e_wo_entrp">     -0.66393377 </i>
    <i name="e_0_energy">     -0.66393377 </i>
   </energy>
  </scstep>
  <scstep>
   <time name="total">    2.96    2.97</time>
   <energy>
    <i name="e_fr_energy">     -0.66393782 </i>
    <i name="e_wo_entrp">     -0.66393782 </i>
    <i name="e_0_energy">     -0.66393782 </i>
   </energy>
  </scstep>
  <scstep>
   <time name="total">    2.35    2.36</time>
   <energy>
    <i name="e_fr_energy">     -0.66393837 </i>
    <i name="e_wo_entrp">     -0.66393837 </i>
    <i name="e_0_energy">     -0.66393837 </i>
   </energy>
  </scstep>
  <scstep>
   <time name="total">    2.29    2.30</time>
   <energy>
    <i name="e_fr_energy">     -0.66393849 </i>
    <i name="e_wo_entrp">     -0.66393849 </i>
    <i name="e_0_energy">     -0.66393849 </i>
   </energy>
  </scstep>
  <scstep>
   <time name="total">    2.29    2.30</time>
   <energy>
    <i name="e_fr_energy">     -0.66393850 </i>
    <i name="e_wo_entrp">     -0.66393850 </i>
    <i name="e_0_energy">     -0.66393850 </i>
   </energy>
  </scstep>
  <scstep>
   <time name="total">    2.20    2.22</time>
   <energy>
    <i name="e_fr_energy">     -0.66393851 </i>
    <i name="e_wo_entrp">     -0.66393851 </i>
    <i name="e_0_energy">     -0.66393851 </i>
   </energy>
  </scstep>
  <scstep>
   <time name="total">    2.29    2.30</time>
   <energy>
    <i name="e_fr_energy">     -0.21444157 </i>
    <i name="e_wo_entrp">     -0.21444157 </i>
    <i name="e_0_energy">     -0.21444157 </i>
   </energy>
  </scstep>
  <scstep>
   <time name="total">    2.93    2.95</time>
   <energy>
    <i name="e_fr_energy">     -0.72371473 </i>
    <i name="e_wo_entrp">     -0.72371473 </i>
    <i name="e_0_energy">     -0.72371473 </i>
   </energy>
  </scstep>
  <scstep>
   <time name="total">    2.96    2.98</time>
   <energy>
    <i name="e_fr_energy">     -0.72585513 </i>
    <i name="e_wo_entrp">     -0.72585513 </i>
    <i name="e_0_energy">     -0.72585513 </i>
   </energy>
  </scstep>
  <scstep>
   <time name="total">    2.93    2.95</time>
   <energy>
    <i name="e_fr_energy">     -0.72602954 </i>
    <i name="e_wo_entrp">     -0.72602954 </i>
    <i name="e_0_energy">     -0.72602954 </i>
   </energy>
  </scstep>
  <scstep>
   <time name="total">    2.86    2.89</time>
   <energy>
    <i name="e_fr_energy">     -0.72605245 </i>
    <i name="e_wo_entrp">     -0.72605245 </i>
    <i name="e_0_energy">     -0.72605245 </i>
   </energy>
  </scstep>
  <scstep>
   <time name="total">    2.85    2.86</time>
   <energy>
    <i name="e_fr_energy">     -0.72605685 </i>
    <i name="e_wo_entrp">     -0.72605685 </i>
    <i name="e_0_energy">     -0.72605685 </i>
   </energy>
  </scstep>
  <scstep>
   <time name="total">    2.31    2.32</time>
   <energy>
    <i name="e_fr_energy">     -0.72605745 </i>
    <i name="e_wo_entrp">     -0.72605745 </i>
    <i name="e_0_energy">     -0.72605745 </i>
   </energy>
  </scstep>
  <scstep>
   <time name="total">    2.24    2.24</time>
   <energy>
    <i name="e_fr_energy">     -0.72605757 </i>
    <i name="e_wo_entrp">     -0.72605757 </i>
    <i name="e_0_energy">     -0.72605757 </i>
   </energy>
  </scstep>
  <scstep>
   <time name="total">    2.29    2.30</time>
   <energy>
    <i name="e_fr_energy">     -0.72605758 </i>
    <i name="e_wo_entrp">     -0.72605758 </i>
    <i name="e_0_energy">     -0.72605758 </i>
   </energy>
  </scstep>
  <scstep>
   <time name="total">    2.19    2.20</time>
   <energy>
    <i name="e_fr_energy">     -0.72605759 </i>
    <i name="e_wo_entrp">     -0.72605759 </i>
    <i name="e_0_energy">     -0.72605759 </i>
   </energy>
  </scstep>
  <scstep>
   <time name="total">    2.30    2.30</time>
   <energy>
    <i name="e_fr_energy">     -0.28239758 </i>
    <i name="e_wo_entrp">     -0.28239758 </i>
    <i name="e_0_energy">     -0.28239758 </i>
   </energy>
  </scstep>
  <scstep>
   <time name="total">    2.83    2.85</time>
   <energy>
    <i name="e_fr_energy">     -0.75272221 </i>
    <i name="e_wo_entrp">     -0.75272221 </i>
    <i name="e_0_energy">     -0.75272221 </i>
   </energy>
  </scstep>
  <scstep>
   <time name="total">    2.89    2.91</time>
   <energy>
    <i name="e_fr_energy">     -0.75561516 </i>
    <i name="e_wo_entrp">     -0.75561516 </i>
    <i name="e_0_energy">     -0.75561516 </i>
   </energy>
  </scstep>
  <scstep>
   <time name="total">    2.89    2.91</time>
   <energy>
    <i name="e_fr_energy">     -0.75575481 </i>
    <i name="e_wo_entrp">     -0.75575481 </i>
    <i name="e_0_energy">     -0.75575481 </i>
   </energy>
  </scstep>
  <scstep>
   <time name="total">    2.89    2.91</time>
   <energy>
    <i name="e_fr_energy">     -0.75577093 </i>
    <i name="e_wo_entrp">     -0.75577093 </i>
    <i name="e_0_energy">     -0.75577093 </i>
   </energy>
  </scstep>
  <scstep>
   <time name="total">    2.92    2.95</time>
   <energy>
    <i name="e_fr_energy">     -0.75577308 </i>
    <i name="e_wo_entrp">     -0.75577308 </i>
    <i name="e_0_energy">     -0.75577308 </i>
   </energy>
  </scstep>
  <scstep>
   <time name="total">    2.33    2.34</time>
   <energy>
    <i name="e_fr_energy">     -0.75577339 </i>
    <i name="e_wo_entrp">     -0.75577339 </i>
    <i name="e_0_energy">     -0.75577339 </i>
   </energy>
  </scstep>
  <scstep>
   <time name="total">    2.18    2.19</time>
   <energy>
    <i name="e_fr_energy">     -0.75577344 </i>
    <i name="e_wo_entrp">     -0.75577344 </i>
    <i name="e_0_energy">     -0.75577344 </i>
   </energy>
  </scstep>
  <scstep>
   <time name="total">    2.06    2.07</time>
   <energy>
    <i name="e_fr_energy">     -0.75577345 </i>
    <i name="e_wo_entrp">     -0.75577345 </i>
    <i name="e_0_energy">     -0.75577345 </i>
   </energy>
  </scstep>
  <varray name="epsilon_rpa" >
   <v>       4.45398242       0.00000050      -0.00000041 </v>
   <v>       0.00000050       4.45398242      -0.00000041 </v>
   <v>       0.00000094       0.00000094       4.75602001 </v>
  </varray>
  <kpoints>
   <generation param="Gamma">
    <v type="int" name="divisions">       6        6       10 </v>
    <v name="usershift">      0.00000000       0.00000000       0.00000000 </v>
    <v name="genvec1">      0.16666667       0.00000000       0.00000000 </v>
    <v name="genvec2">      0.00000000       0.16666667       0.00000000 </v>
    <v name="genvec3">      0.00000000       0.00000000       0.10000000 </v>
    <v name="shift">      0.00000000       0.00000000       0.00000000 </v>
   </generation>
   <varray name="kpointlist" >
    <v>       0.00000000       0.00000000       0.00000000 </v>
    <v>       0.16666667       0.00000000       0.00000000 </v>
    <v>       0.33333333       0.00000000       0.00000000 </v>
    <v>       0.50000000       0.00000000       0.00000000 </v>
    <v>       0.00000000       0.16666667       0.00000000 </v>
    <v>       0.16666667       0.16666667       0.00000000 </v>
    <v>       0.33333333       0.16666667       0.00000000 </v>
    <v>       0.50000000       0.16666667       0.00000000 </v>
    <v>      -0.33333333       0.16666667       0.00000000 </v>
    <v>      -0.16666667       0.16666667       0.00000000 </v>
    <v>       0.00000000       0.33333333       0.00000000 </v>
    <v>       0.16666667       0.33333333       0.00000000 </v>
    <v>       0.33333333       0.33333333       0.00000000 </v>
    <v>       0.50000000       0.33333333       0.00000000 </v>
    <v>      -0.33333333       0.33333333       0.00000000 </v>
    <v>      -0.16666667       0.33333333       0.00000000 </v>
    <v>       0.00000000       0.50000000       0.00000000 </v>
    <v>       0.16666667       0.50000000       0.00000000 </v>
    <v>       0.33333333       0.50000000       0.00000000 </v>
    <v>       0.50000000       0.50000000       0.00000000 </v>
    <v>       0.00000000       0.00000000       0.10000000 </v>
    <v>       0.16666667       0.00000000       0.10000000 </v>
    <v>       0.33333333       0.00000000       0.10000000 </v>
    <v>       0.50000000       0.00000000       0.10000000 </v>
    <v>      -0.33333333       0.00000000       0.10000000 </v>
    <v>      -0.16666667       0.00000000       0.10000000 </v>
    <v>       0.00000000       0.16666667       0.10000000 </v>
    <v>       0.16666667       0.16666667       0.10000000 </v>
    <v>       0.33333333       0.16666667       0.10000000 </v>
    <v>       0.50000000       0.16666667       0.10000000 </v>
    <v>      -0.33333333       0.16666667       0.10000000 </v>
    <v>      -0.16666667       0.16666667       0.10000000 </v>
    <v>       0.00000000       0.33333333       0.10000000 </v>
    <v>       0.16666667       0.33333333       0.10000000 </v>
    <v>       0.33333333       0.33333333       0.10000000 </v>
    <v>       0.50000000       0.33333333       0.10000000 </v>
    <v>      -0.33333333       0.33333333       0.10000000 </v>
    <v>      -0.16666667       0.33333333       0.10000000 </v>
    <v>       0.00000000       0.50000000       0.10000000 </v>
    <v>       0.16666667       0.50000000       0.10000000 </v>
    <v>       0.33333333       0.50000000       0.10000000 </v>
    <v>       0.50000000       0.50000000       0.10000000 </v>
    <v>      -0.33333333       0.50000000       0.10000000 </v>
    <v>      -0.16666667       0.50000000       0.10000000 </v>
    <v>       0.00000000      -0.33333333       0.10000000 </v>
    <v>       0.16666667      -0.33333333       0.10000000 </v>
    <v>       0.33333333      -0.33333333       0.10000000 </v>
    <v>       0.50000000      -0.33333333       0.10000000 </v>
    <v>      -0.33333333      -0.33333333       0.10000000 </v>
    <v>      -0.16666667      -0.33333333       0.10000000 </v>
    <v>       0.00000000      -0.16666667       0.10000000 </v>
    <v>       0.16666667      -0.16666667       0.10000000 </v>
    <v>       0.33333333      -0.16666667       0.10000000 </v>
    <v>       0.50000000      -0.16666667       0.10000000 </v>
    <v>      -0.33333333      -0.16666667       0.10000000 </v>
    <v>      -0.16666667      -0.16666667       0.10000000 </v>
    <v>       0.00000000       0.00000000       0.20000000 </v>
    <v>       0.16666667       0.00000000       0.20000000 </v>
    <v>       0.33333333       0.00000000       0.20000000 </v>
    <v>       0.50000000       0.00000000       0.20000000 </v>
    <v>      -0.33333333       0.00000000       0.20000000 </v>
    <v>      -0.16666667       0.00000000       0.20000000 </v>
    <v>       0.00000000       0.16666667       0.20000000 </v>
    <v>       0.16666667       0.16666667       0.20000000 </v>
    <v>       0.33333333       0.16666667       0.20000000 </v>
    <v>       0.50000000       0.16666667       0.20000000 </v>
    <v>      -0.33333333       0.16666667       0.20000000 </v>
    <v>      -0.16666667       0.16666667       0.20000000 </v>
    <v>       0.00000000       0.33333333       0.20000000 </v>
    <v>       0.16666667       0.33333333       0.20000000 </v>
    <v>       0.33333333       0.33333333       0.20000000 </v>
    <v>       0.50000000       0.33333333       0.20000000 </v>
    <v>      -0.33333333       0.33333333       0.20000000 </v>
    <v>      -0.16666667       0.33333333       0.20000000 </v>
    <v>       0.00000000       0.50000000       0.20000000 </v>
    <v>       0.16666667       0.50000000       0.20000000 </v>
    <v>       0.33333333       0.50000000       0.20000000 </v>
    <v>       0.50000000       0.50000000       0.20000000 </v>
    <v>      -0.33333333       0.50000000       0.20000000 </v>
    <v>      -0.16666667       0.50000000       0.20000000 </v>
    <v>       0.00000000      -0.33333333       0.20000000 </v>
    <v>       0.16666667      -0.33333333       0.20000000 </v>
    <v>       0.33333333      -0.33333333       0.20000000 </v>
    <v>       0.50000000      -0.33333333       0.20000000 </v>
    <v>      -0.33333333      -0.33333333       0.20000000 </v>
    <v>      -0.16666667      -0.33333333       0.20000000 </v>
    <v>       0.00000000      -0.16666667       0.20000000 </v>
    <v>       0.16666667      -0.16666667       0.20000000 </v>
    <v>       0.33333333      -0.16666667       0.20000000 </v>
    <v>       0.50000000      -0.16666667       0.20000000 </v>
    <v>      -0.33333333      -0.16666667       0.20000000 </v>
    <v>      -0.16666667      -0.16666667       0.20000000 </v>
    <v>       0.00000000       0.00000000       0.30000000 </v>
    <v>       0.16666667       0.00000000       0.30000000 </v>
    <v>       0.33333333       0.00000000       0.30000000 </v>
    <v>       0.50000000       0.00000000       0.30000000 </v>
    <v>      -0.33333333       0.00000000       0.30000000 </v>
    <v>      -0.16666667       0.00000000       0.30000000 </v>
    <v>       0.00000000       0.16666667       0.30000000 </v>
    <v>       0.16666667       0.16666667       0.30000000 </v>
    <v>       0.33333333       0.16666667       0.30000000 </v>
    <v>       0.50000000       0.16666667       0.30000000 </v>
    <v>      -0.33333333       0.16666667       0.30000000 </v>
    <v>      -0.16666667       0.16666667       0.30000000 </v>
    <v>       0.00000000       0.33333333       0.30000000 </v>
    <v>       0.16666667       0.33333333       0.30000000 </v>
    <v>       0.33333333       0.33333333       0.30000000 </v>
    <v>       0.50000000       0.33333333       0.30000000 </v>
    <v>      -0.33333333       0.33333333       0.30000000 </v>
    <v>      -0.16666667       0.33333333       0.30000000 </v>
    <v>       0.00000000       0.50000000       0.30000000 </v>
    <v>       0.16666667       0.50000000       0.30000000 </v>
    <v>       0.33333333       0.50000000       0.30000000 </v>
    <v>       0.50000000       0.50000000       0.30000000 </v>
    <v>      -0.33333333       0.50000000       0.30000000 </v>
    <v>      -0.16666667       0.50000000       0.30000000 </v>
    <v>       0.00000000      -0.33333333       0.30000000 </v>
    <v>       0.16666667      -0.33333333       0.30000000 </v>
    <v>       0.33333333      -0.33333333       0.30000000 </v>
    <v>       0.50000000      -0.33333333       0.30000000 </v>
    <v>      -0.33333333      -0.33333333       0.30000000 </v>
    <v>      -0.16666667      -0.33333333       0.30000000 </v>
    <v>       0.00000000      -0.16666667       0.30000000 </v>
    <v>       0.16666667      -0.16666667       0.30000000 </v>
    <v>       0.33333333      -0.16666667       0.30000000 </v>
    <v>       0.50000000      -0.16666667       0.30000000 </v>
    <v>      -0.33333333      -0.16666667       0.30000000 </v>
    <v>      -0.16666667      -0.16666667       0.30000000 </v>
    <v>       0.00000000       0.00000000       0.40000000 </v>
    <v>       0.16666667       0.00000000       0.40000000 </v>
    <v>       0.33333333       0.00000000       0.40000000 </v>
    <v>       0.50000000       0.00000000       0.40000000 </v>
    <v>      -0.33333333       0.00000000       0.40000000 </v>
    <v>      -0.16666667       0.00000000       0.40000000 </v>
    <v>       0.00000000       0.16666667       0.40000000 </v>
    <v>       0.16666667       0.16666667       0.40000000 </v>
    <v>       0.33333333       0.16666667       0.40000000 </v>
    <v>       0.50000000       0.16666667       0.40000000 </v>
    <v>      -0.33333333       0.16666667       0.40000000 </v>
    <v>      -0.16666667       0.16666667       0.40000000 </v>
    <v>       0.00000000       0.33333333       0.40000000 </v>
    <v>       0.16666667       0.33333333       0.40000000 </v>
    <v>       0.33333333       0.33333333       0.40000000 </v>
    <v>       0.50000000       0.33333333       0.40000000 </v>
    <v>      -0.33333333       0.33333333       0.40000000 </v>
    <v>      -0.16666667       0.33333333       0.40000000 </v>
    <v>       0.00000000       0.50000000       0.40000000 </v>
    <v>       0.16666667       0.50000000       0.40000000 </v>
    <v>       0.33333333       0.50000000       0.40000000 </v>
    <v>       0.50000000       0.50000000       0.40000000 </v>
    <v>      -0.33333333       0.50000000       0.40000000 </v>
    <v>      -0.16666667       0.50000000       0.40000000 </v>
    <v>       0.00000000      -0.33333333       0.40000000 </v>
    <v>       0.16666667      -0.33333333       0.40000000 </v>
    <v>       0.33333333      -0.33333333       0.40000000 </v>
    <v>       0.50000000      -0.33333333       0.40000000 </v>
    <v>      -0.33333333      -0.33333333       0.40000000 </v>
    <v>      -0.16666667      -0.33333333       0.40000000 </v>
    <v>       0.00000000      -0.16666667       0.40000000 </v>
    <v>       0.16666667      -0.16666667       0.40000000 </v>
    <v>       0.33333333      -0.16666667       0.40000000 </v>
    <v>       0.50000000      -0.16666667       0.40000000 </v>
    <v>      -0.33333333      -0.16666667       0.40000000 </v>
    <v>      -0.16666667      -0.16666667       0.40000000 </v>
    <v>       0.00000000       0.00000000       0.50000000 </v>
    <v>       0.16666667       0.00000000       0.50000000 </v>
    <v>       0.33333333       0.00000000       0.50000000 </v>
    <v>       0.50000000       0.00000000       0.50000000 </v>
    <v>       0.00000000       0.16666667       0.50000000 </v>
    <v>       0.16666667       0.16666667       0.50000000 </v>
    <v>       0.33333333       0.16666667       0.50000000 </v>
    <v>       0.50000000       0.16666667       0.50000000 </v>
    <v>      -0.33333333       0.16666667       0.50000000 </v>
    <v>      -0.16666667       0.16666667       0.50000000 </v>
    <v>       0.00000000       0.33333333       0.50000000 </v>
    <v>       0.16666667       0.33333333       0.50000000 </v>
    <v>       0.33333333       0.33333333       0.50000000 </v>
    <v>       0.50000000       0.33333333       0.50000000 </v>
    <v>      -0.33333333       0.33333333       0.50000000 </v>
    <v>      -0.16666667       0.33333333       0.50000000 </v>
    <v>       0.00000000       0.50000000       0.50000000 </v>
    <v>       0.16666667       0.50000000       0.50000000 </v>
    <v>       0.33333333       0.50000000       0.50000000 </v>
    <v>       0.50000000       0.50000000       0.50000000 </v>
   </varray>
   <varray name="weights" >
    <v>       0.00277778 </v>
    <v>       0.00555556 </v>
    <v>       0.00555556 </v>
    <v>       0.00277778 </v>
    <v>       0.00555556 </v>
    <v>       0.00555556 </v>
    <v>       0.00555556 </v>
    <v>       0.00555556 </v>
    <v>       0.00555556 </v>
    <v>       0.00555556 </v>
    <v>       0.00555556 </v>
    <v>       0.00555556 </v>
    <v>       0.00555556 </v>
    <v>       0.00555556 </v>
    <v>       0.00555556 </v>
    <v>       0.00555556 </v>
    <v>       0.00277778 </v>
    <v>       0.00555556 </v>
    <v>       0.00555556 </v>
    <v>       0.00277778 </v>
    <v>       0.00555556 </v>
    <v>       0.00555556 </v>
    <v>       0.00555556 </v>
    <v>       0.00555556 </v>
    <v>       0.00555556 </v>
    <v>       0.00555556 </v>
    <v>       0.00555556 </v>
    <v>       0.00555556 </v>
    <v>       0.00555556 </v>
    <v>       0.00555556 </v>
    <v>       0.00555556 </v>
    <v>       0.00555556 </v>
    <v>       0.00555556 </v>
    <v>       0.00555556 </v>
    <v>       0.00555556 </v>
    <v>       0.00555556 </v>
    <v>       0.00555556 </v>
    <v>       0.00555556 </v>
    <v>       0.00555556 </v>
    <v>       0.00555556 </v>
    <v>       0.00555556 </v>
    <v>       0.00555556 </v>
    <v>       0.00555556 </v>
    <v>       0.00555556 </v>
    <v>       0.00555556 </v>
    <v>       0.00555556 </v>
    <v>       0.00555556 </v>
    <v>       0.00555556 </v>
    <v>       0.00555556 </v>
    <v>       0.00555556 </v>
    <v>       0.00555556 </v>
    <v>       0.00555556 </v>
    <v>       0.00555556 </v>
    <v>       0.00555556 </v>
    <v>       0.00555556 </v>
    <v>       0.00555556 </v>
    <v>       0.00555556 </v>
    <v>       0.00555556 </v>
    <v>       0.00555556 </v>
    <v>       0.00555556 </v>
    <v>       0.00555556 </v>
    <v>       0.00555556 </v>
    <v>       0.00555556 </v>
    <v>       0.00555556 </v>
    <v>       0.00555556 </v>
    <v>       0.00555556 </v>
    <v>       0.00555556 </v>
    <v>       0.00555556 </v>
    <v>       0.00555556 </v>
    <v>       0.00555556 </v>
    <v>       0.00555556 </v>
    <v>       0.00555556 </v>
    <v>       0.00555556 </v>
    <v>       0.00555556 </v>
    <v>       0.00555556 </v>
    <v>       0.00555556 </v>
    <v>       0.00555556 </v>
    <v>       0.00555556 </v>
    <v>       0.00555556 </v>
    <v>       0.00555556 </v>
    <v>       0.00555556 </v>
    <v>       0.00555556 </v>
    <v>       0.00555556 </v>
    <v>       0.00555556 </v>
    <v>       0.00555556 </v>
    <v>       0.00555556 </v>
    <v>       0.00555556 </v>
    <v>       0.00555556 </v>
    <v>       0.00555556 </v>
    <v>       0.00555556 </v>
    <v>       0.00555556 </v>
    <v>       0.00555556 </v>
    <v>       0.00555556 </v>
    <v>       0.00555556 </v>
    <v>       0.00555556 </v>
    <v>       0.00555556 </v>
    <v>       0.00555556 </v>
    <v>       0.00555556 </v>
    <v>       0.00555556 </v>
    <v>       0.00555556 </v>
    <v>       0.00555556 </v>
    <v>       0.00555556 </v>
    <v>       0.00555556 </v>
    <v>       0.00555556 </v>
    <v>       0.00555556 </v>
    <v>       0.00555556 </v>
    <v>       0.00555556 </v>
    <v>       0.00555556 </v>
    <v>       0.00555556 </v>
    <v>       0.00555556 </v>
    <v>       0.00555556 </v>
    <v>       0.00555556 </v>
    <v>       0.00555556 </v>
    <v>       0.00555556 </v>
    <v>       0.00555556 </v>
    <v>       0.00555556 </v>
    <v>       0.00555556 </v>
    <v>       0.00555556 </v>
    <v>       0.00555556 </v>
    <v>       0.00555556 </v>
    <v>       0.00555556 </v>
    <v>       0.00555556 </v>
    <v>       0.00555556 </v>
    <v>       0.00555556 </v>
    <v>       0.00555556 </v>
    <v>       0.00555556 </v>
    <v>       0.00555556 </v>
    <v>       0.00555556 </v>
    <v>       0.00555556 </v>
    <v>       0.00555556 </v>
    <v>       0.00555556 </v>
    <v>       0.00555556 </v>
    <v>       0.00555556 </v>
    <v>       0.00555556 </v>
    <v>       0.00555556 </v>
    <v>       0.00555556 </v>
    <v>       0.00555556 </v>
    <v>       0.00555556 </v>
    <v>       0.00555556 </v>
    <v>       0.00555556 </v>
    <v>       0.00555556 </v>
    <v>       0.00555556 </v>
    <v>       0.00555556 </v>
    <v>       0.00555556 </v>
    <v>       0.00555556 </v>
    <v>       0.00555556 </v>
    <v>       0.00555556 </v>
    <v>       0.00555556 </v>
    <v>       0.00555556 </v>
    <v>       0.00555556 </v>
    <v>       0.00555556 </v>
    <v>       0.00555556 </v>
    <v>       0.00555556 </v>
    <v>       0.00555556 </v>
    <v>       0.00555556 </v>
    <v>       0.00555556 </v>
    <v>       0.00555556 </v>
    <v>       0.00555556 </v>
    <v>       0.00555556 </v>
    <v>       0.00555556 </v>
    <v>       0.00555556 </v>
    <v>       0.00555556 </v>
    <v>       0.00555556 </v>
    <v>       0.00555556 </v>
    <v>       0.00277778 </v>
    <v>       0.00555556 </v>
    <v>       0.00555556 </v>
    <v>       0.00277778 </v>
    <v>       0.00555556 </v>
    <v>       0.00555556 </v>
    <v>       0.00555556 </v>
    <v>       0.00555556 </v>
    <v>       0.00555556 </v>
    <v>       0.00555556 </v>
    <v>       0.00555556 </v>
    <v>       0.00555556 </v>
    <v>       0.00555556 </v>
    <v>       0.00555556 </v>
    <v>       0.00555556 </v>
    <v>       0.00555556 </v>
    <v>       0.00277778 </v>
    <v>       0.00555556 </v>
    <v>       0.00555556 </v>
    <v>       0.00277778 </v>
   </varray>
  </kpoints>
  <scstep>
   <time name="total">    3.75    3.76</time>
   <energy>
    <i name="e_fr_energy">     -0.21291210 </i>
    <i name="e_wo_entrp">     -0.21291210 </i>
    <i name="e_0_energy">     -0.21291210 </i>
   </energy>
  </scstep>
  <scstep>
   <time name="total">    5.20    5.29</time>
   <energy>
    <i name="e_fr_energy">     -0.69268756 </i>
    <i name="e_wo_entrp">     -0.69268756 </i>
    <i name="e_0_energy">     -0.69268756 </i>
   </energy>
  </scstep>
  <scstep>
   <time name="total">    5.77    5.81</time>
   <energy>
    <i name="e_fr_energy">     -0.68815050 </i>
    <i name="e_wo_entrp">     -0.68815050 </i>
    <i name="e_0_energy">     -0.68815050 </i>
   </energy>
  </scstep>
  <scstep>
   <time name="total">    5.75    5.78</time>
   <energy>
    <i name="e_fr_energy">     -0.70117062 </i>
    <i name="e_wo_entrp">     -0.70117062 </i>
    <i name="e_0_energy">     -0.70117062 </i>
   </energy>
  </scstep>
  <scstep>
   <time name="total">    5.77    5.80</time>
   <energy>
    <i name="e_fr_energy">     -0.72001048 </i>
    <i name="e_wo_entrp">     -0.72001048 </i>
    <i name="e_0_energy">     -0.72001048 </i>
   </energy>
  </scstep>
  <scstep>
   <time name="total">    5.87    5.93</time>
   <energy>
    <i name="e_fr_energy">     -0.72143739 </i>
    <i name="e_wo_entrp">     -0.72143739 </i>
    <i name="e_0_energy">     -0.72143739 </i>
   </energy>
  </scstep>
  <scstep>
   <time name="total">    5.77    5.79</time>
   <energy>
    <i name="e_fr_energy">     -0.72197678 </i>
    <i name="e_wo_entrp">     -0.72197678 </i>
    <i name="e_0_energy">     -0.72197678 </i>
   </energy>
  </scstep>
  <scstep>
   <time name="total">    5.86    5.88</time>
   <energy>
    <i name="e_fr_energy">     -0.72205514 </i>
    <i name="e_wo_entrp">     -0.72205514 </i>
    <i name="e_0_energy">     -0.72205514 </i>
   </energy>
  </scstep>
  <scstep>
   <time name="total">    5.81    5.86</time>
   <energy>
    <i name="e_fr_energy">     -0.72208757 </i>
    <i name="e_wo_entrp">     -0.72208757 </i>
    <i name="e_0_energy">     -0.72208757 </i>
   </energy>
  </scstep>
  <scstep>
   <time name="total">    5.76    5.82</time>
   <energy>
    <i name="e_fr_energy">     -0.72208856 </i>
    <i name="e_wo_entrp">     -0.72208856 </i>
    <i name="e_0_energy">     -0.72208856 </i>
   </energy>
  </scstep>
  <scstep>
   <time name="total">    5.48    5.51</time>
   <energy>
    <i name="e_fr_energy">     -0.72208863 </i>
    <i name="e_wo_entrp">     -0.72208863 </i>
    <i name="e_0_energy">     -0.72208863 </i>
   </energy>
  </scstep>
  <scstep>
   <time name="total">    5.29    5.32</time>
   <energy>
    <i name="e_fr_energy">     -0.72208896 </i>
    <i name="e_wo_entrp">     -0.72208896 </i>
    <i name="e_0_energy">     -0.72208896 </i>
   </energy>
  </scstep>
  <scstep>
   <time name="total">    5.03    5.06</time>
   <energy>
    <i name="e_fr_energy">     -0.72208913 </i>
    <i name="e_wo_entrp">     -0.72208913 </i>
    <i name="e_0_energy">     -0.72208913 </i>
   </energy>
  </scstep>
  <kpoints>
   <generation param="Gamma">
    <v type="int" name="divisions">       6        6       10 </v>
    <v name="usershift">      0.00000000       0.00000000       0.00000000 </v>
    <v name="genvec1">      0.16666667       0.00000000       0.00000000 </v>
    <v name="genvec2">      0.00000000       0.16666667       0.00000000 </v>
    <v name="genvec3">      0.00000000       0.00000000       0.10000000 </v>
    <v name="shift">      0.00000000       0.00000000       0.00000000 </v>
   </generation>
   <varray name="kpointlist" >
    <v>       0.00000000       0.00000000       0.00000000 </v>
    <v>       0.16666667       0.00000000       0.00000000 </v>
    <v>       0.33333333       0.00000000       0.00000000 </v>
    <v>       0.50000000       0.00000000       0.00000000 </v>
    <v>       0.00000000       0.16666667       0.00000000 </v>
    <v>       0.16666667       0.16666667       0.00000000 </v>
    <v>       0.33333333       0.16666667       0.00000000 </v>
    <v>       0.50000000       0.16666667       0.00000000 </v>
    <v>      -0.33333333       0.16666667       0.00000000 </v>
    <v>      -0.16666667       0.16666667       0.00000000 </v>
    <v>       0.00000000       0.33333333       0.00000000 </v>
    <v>       0.16666667       0.33333333       0.00000000 </v>
    <v>       0.33333333       0.33333333       0.00000000 </v>
    <v>       0.50000000       0.33333333       0.00000000 </v>
    <v>      -0.33333333       0.33333333       0.00000000 </v>
    <v>      -0.16666667       0.33333333       0.00000000 </v>
    <v>       0.00000000       0.50000000       0.00000000 </v>
    <v>       0.16666667       0.50000000       0.00000000 </v>
    <v>       0.33333333       0.50000000       0.00000000 </v>
    <v>       0.50000000       0.50000000       0.00000000 </v>
    <v>       0.00000000       0.00000000       0.10000000 </v>
    <v>       0.16666667       0.00000000       0.10000000 </v>
    <v>       0.33333333       0.00000000       0.10000000 </v>
    <v>       0.50000000       0.00000000       0.10000000 </v>
    <v>      -0.33333333       0.00000000       0.10000000 </v>
    <v>      -0.16666667       0.00000000       0.10000000 </v>
    <v>       0.00000000       0.16666667       0.10000000 </v>
    <v>       0.16666667       0.16666667       0.10000000 </v>
    <v>       0.33333333       0.16666667       0.10000000 </v>
    <v>       0.50000000       0.16666667       0.10000000 </v>
    <v>      -0.33333333       0.16666667       0.10000000 </v>
    <v>      -0.16666667       0.16666667       0.10000000 </v>
    <v>       0.00000000       0.33333333       0.10000000 </v>
    <v>       0.16666667       0.33333333       0.10000000 </v>
    <v>       0.33333333       0.33333333       0.10000000 </v>
    <v>       0.50000000       0.33333333       0.10000000 </v>
    <v>      -0.33333333       0.33333333       0.10000000 </v>
    <v>      -0.16666667       0.33333333       0.10000000 </v>
    <v>       0.00000000       0.50000000       0.10000000 </v>
    <v>       0.16666667       0.50000000       0.10000000 </v>
    <v>       0.33333333       0.50000000       0.10000000 </v>
    <v>       0.50000000       0.50000000       0.10000000 </v>
    <v>      -0.33333333       0.50000000       0.10000000 </v>
    <v>      -0.16666667       0.50000000       0.10000000 </v>
    <v>       0.00000000      -0.33333333       0.10000000 </v>
    <v>       0.16666667      -0.33333333       0.10000000 </v>
    <v>       0.33333333      -0.33333333       0.10000000 </v>
    <v>       0.50000000      -0.33333333       0.10000000 </v>
    <v>      -0.33333333      -0.33333333       0.10000000 </v>
    <v>      -0.16666667      -0.33333333       0.10000000 </v>
    <v>       0.00000000      -0.16666667       0.10000000 </v>
    <v>       0.16666667      -0.16666667       0.10000000 </v>
    <v>       0.33333333      -0.16666667       0.10000000 </v>
    <v>       0.50000000      -0.16666667       0.10000000 </v>
    <v>      -0.33333333      -0.16666667       0.10000000 </v>
    <v>      -0.16666667      -0.16666667       0.10000000 </v>
    <v>       0.00000000       0.00000000       0.20000000 </v>
    <v>       0.16666667       0.00000000       0.20000000 </v>
    <v>       0.33333333       0.00000000       0.20000000 </v>
    <v>       0.50000000       0.00000000       0.20000000 </v>
    <v>      -0.33333333       0.00000000       0.20000000 </v>
    <v>      -0.16666667       0.00000000       0.20000000 </v>
    <v>       0.00000000       0.16666667       0.20000000 </v>
    <v>       0.16666667       0.16666667       0.20000000 </v>
    <v>       0.33333333       0.16666667       0.20000000 </v>
    <v>       0.50000000       0.16666667       0.20000000 </v>
    <v>      -0.33333333       0.16666667       0.20000000 </v>
    <v>      -0.16666667       0.16666667       0.20000000 </v>
    <v>       0.00000000       0.33333333       0.20000000 </v>
    <v>       0.16666667       0.33333333       0.20000000 </v>
    <v>       0.33333333       0.33333333       0.20000000 </v>
    <v>       0.50000000       0.33333333       0.20000000 </v>
    <v>      -0.33333333       0.33333333       0.20000000 </v>
    <v>      -0.16666667       0.33333333       0.20000000 </v>
    <v>       0.00000000       0.50000000       0.20000000 </v>
    <v>       0.16666667       0.50000000       0.20000000 </v>
    <v>       0.33333333       0.50000000       0.20000000 </v>
    <v>       0.50000000       0.50000000       0.20000000 </v>
    <v>      -0.33333333       0.50000000       0.20000000 </v>
    <v>      -0.16666667       0.50000000       0.20000000 </v>
    <v>       0.00000000      -0.33333333       0.20000000 </v>
    <v>       0.16666667      -0.33333333       0.20000000 </v>
    <v>       0.33333333      -0.33333333       0.20000000 </v>
    <v>       0.50000000      -0.33333333       0.20000000 </v>
    <v>      -0.33333333      -0.33333333       0.20000000 </v>
    <v>      -0.16666667      -0.33333333       0.20000000 </v>
    <v>       0.00000000      -0.16666667       0.20000000 </v>
    <v>       0.16666667      -0.16666667       0.20000000 </v>
    <v>       0.33333333      -0.16666667       0.20000000 </v>
    <v>       0.50000000      -0.16666667       0.20000000 </v>
    <v>      -0.33333333      -0.16666667       0.20000000 </v>
    <v>      -0.16666667      -0.16666667       0.20000000 </v>
    <v>       0.00000000       0.00000000       0.30000000 </v>
    <v>       0.16666667       0.00000000       0.30000000 </v>
    <v>       0.33333333       0.00000000       0.30000000 </v>
    <v>       0.50000000       0.00000000       0.30000000 </v>
    <v>      -0.33333333       0.00000000       0.30000000 </v>
    <v>      -0.16666667       0.00000000       0.30000000 </v>
    <v>       0.00000000       0.16666667       0.30000000 </v>
    <v>       0.16666667       0.16666667       0.30000000 </v>
    <v>       0.33333333       0.16666667       0.30000000 </v>
    <v>       0.50000000       0.16666667       0.30000000 </v>
    <v>      -0.33333333       0.16666667       0.30000000 </v>
    <v>      -0.16666667       0.16666667       0.30000000 </v>
    <v>       0.00000000       0.33333333       0.30000000 </v>
    <v>       0.16666667       0.33333333       0.30000000 </v>
    <v>       0.33333333       0.33333333       0.30000000 </v>
    <v>       0.50000000       0.33333333       0.30000000 </v>
    <v>      -0.33333333       0.33333333       0.30000000 </v>
    <v>      -0.16666667       0.33333333       0.30000000 </v>
    <v>       0.00000000       0.50000000       0.30000000 </v>
    <v>       0.16666667       0.50000000       0.30000000 </v>
    <v>       0.33333333       0.50000000       0.30000000 </v>
    <v>       0.50000000       0.50000000       0.30000000 </v>
    <v>      -0.33333333       0.50000000       0.30000000 </v>
    <v>      -0.16666667       0.50000000       0.30000000 </v>
    <v>       0.00000000      -0.33333333       0.30000000 </v>
    <v>       0.16666667      -0.33333333       0.30000000 </v>
    <v>       0.33333333      -0.33333333       0.30000000 </v>
    <v>       0.50000000      -0.33333333       0.30000000 </v>
    <v>      -0.33333333      -0.33333333       0.30000000 </v>
    <v>      -0.16666667      -0.33333333       0.30000000 </v>
    <v>       0.00000000      -0.16666667       0.30000000 </v>
    <v>       0.16666667      -0.16666667       0.30000000 </v>
    <v>       0.33333333      -0.16666667       0.30000000 </v>
    <v>       0.50000000      -0.16666667       0.30000000 </v>
    <v>      -0.33333333      -0.16666667       0.30000000 </v>
    <v>      -0.16666667      -0.16666667       0.30000000 </v>
    <v>       0.00000000       0.00000000       0.40000000 </v>
    <v>       0.16666667       0.00000000       0.40000000 </v>
    <v>       0.33333333       0.00000000       0.40000000 </v>
    <v>       0.50000000       0.00000000       0.40000000 </v>
    <v>      -0.33333333       0.00000000       0.40000000 </v>
    <v>      -0.16666667       0.00000000       0.40000000 </v>
    <v>       0.00000000       0.16666667       0.40000000 </v>
    <v>       0.16666667       0.16666667       0.40000000 </v>
    <v>       0.33333333       0.16666667       0.40000000 </v>
    <v>       0.50000000       0.16666667       0.40000000 </v>
    <v>      -0.33333333       0.16666667       0.40000000 </v>
    <v>      -0.16666667       0.16666667       0.40000000 </v>
    <v>       0.00000000       0.33333333       0.40000000 </v>
    <v>       0.16666667       0.33333333       0.40000000 </v>
    <v>       0.33333333       0.33333333       0.40000000 </v>
    <v>       0.50000000       0.33333333       0.40000000 </v>
    <v>      -0.33333333       0.33333333       0.40000000 </v>
    <v>      -0.16666667       0.33333333       0.40000000 </v>
    <v>       0.00000000       0.50000000       0.40000000 </v>
    <v>       0.16666667       0.50000000       0.40000000 </v>
    <v>       0.33333333       0.50000000       0.40000000 </v>
    <v>       0.50000000       0.50000000       0.40000000 </v>
    <v>      -0.33333333       0.50000000       0.40000000 </v>
    <v>      -0.16666667       0.50000000       0.40000000 </v>
    <v>       0.00000000      -0.33333333       0.40000000 </v>
    <v>       0.16666667      -0.33333333       0.40000000 </v>
    <v>       0.33333333      -0.33333333       0.40000000 </v>
    <v>       0.50000000      -0.33333333       0.40000000 </v>
    <v>      -0.33333333      -0.33333333       0.40000000 </v>
    <v>      -0.16666667      -0.33333333       0.40000000 </v>
    <v>       0.00000000      -0.16666667       0.40000000 </v>
    <v>       0.16666667      -0.16666667       0.40000000 </v>
    <v>       0.33333333      -0.16666667       0.40000000 </v>
    <v>       0.50000000      -0.16666667       0.40000000 </v>
    <v>      -0.33333333      -0.16666667       0.40000000 </v>
    <v>      -0.16666667      -0.16666667       0.40000000 </v>
    <v>       0.00000000       0.00000000       0.50000000 </v>
    <v>       0.16666667       0.00000000       0.50000000 </v>
    <v>       0.33333333       0.00000000       0.50000000 </v>
    <v>       0.50000000       0.00000000       0.50000000 </v>
    <v>       0.00000000       0.16666667       0.50000000 </v>
    <v>       0.16666667       0.16666667       0.50000000 </v>
    <v>       0.33333333       0.16666667       0.50000000 </v>
    <v>       0.50000000       0.16666667       0.50000000 </v>
    <v>      -0.33333333       0.16666667       0.50000000 </v>
    <v>      -0.16666667       0.16666667       0.50000000 </v>
    <v>       0.00000000       0.33333333       0.50000000 </v>
    <v>       0.16666667       0.33333333       0.50000000 </v>
    <v>       0.33333333       0.33333333       0.50000000 </v>
    <v>       0.50000000       0.33333333       0.50000000 </v>
    <v>      -0.33333333       0.33333333       0.50000000 </v>
    <v>      -0.16666667       0.33333333       0.50000000 </v>
    <v>       0.00000000       0.50000000       0.50000000 </v>
    <v>       0.16666667       0.50000000       0.50000000 </v>
    <v>       0.33333333       0.50000000       0.50000000 </v>
    <v>       0.50000000       0.50000000       0.50000000 </v>
   </varray>
   <varray name="weights" >
    <v>       0.00277778 </v>
    <v>       0.00555556 </v>
    <v>       0.00555556 </v>
    <v>       0.00277778 </v>
    <v>       0.00555556 </v>
    <v>       0.00555556 </v>
    <v>       0.00555556 </v>
    <v>       0.00555556 </v>
    <v>       0.00555556 </v>
    <v>       0.00555556 </v>
    <v>       0.00555556 </v>
    <v>       0.00555556 </v>
    <v>       0.00555556 </v>
    <v>       0.00555556 </v>
    <v>       0.00555556 </v>
    <v>       0.00555556 </v>
    <v>       0.00277778 </v>
    <v>       0.00555556 </v>
    <v>       0.00555556 </v>
    <v>       0.00277778 </v>
    <v>       0.00555556 </v>
    <v>       0.00555556 </v>
    <v>       0.00555556 </v>
    <v>       0.00555556 </v>
    <v>       0.00555556 </v>
    <v>       0.00555556 </v>
    <v>       0.00555556 </v>
    <v>       0.00555556 </v>
    <v>       0.00555556 </v>
    <v>       0.00555556 </v>
    <v>       0.00555556 </v>
    <v>       0.00555556 </v>
    <v>       0.00555556 </v>
    <v>       0.00555556 </v>
    <v>       0.00555556 </v>
    <v>       0.00555556 </v>
    <v>       0.00555556 </v>
    <v>       0.00555556 </v>
    <v>       0.00555556 </v>
    <v>       0.00555556 </v>
    <v>       0.00555556 </v>
    <v>       0.00555556 </v>
    <v>       0.00555556 </v>
    <v>       0.00555556 </v>
    <v>       0.00555556 </v>
    <v>       0.00555556 </v>
    <v>       0.00555556 </v>
    <v>       0.00555556 </v>
    <v>       0.00555556 </v>
    <v>       0.00555556 </v>
    <v>       0.00555556 </v>
    <v>       0.00555556 </v>
    <v>       0.00555556 </v>
    <v>       0.00555556 </v>
    <v>       0.00555556 </v>
    <v>       0.00555556 </v>
    <v>       0.00555556 </v>
    <v>       0.00555556 </v>
    <v>       0.00555556 </v>
    <v>       0.00555556 </v>
    <v>       0.00555556 </v>
    <v>       0.00555556 </v>
    <v>       0.00555556 </v>
    <v>       0.00555556 </v>
    <v>       0.00555556 </v>
    <v>       0.00555556 </v>
    <v>       0.00555556 </v>
    <v>       0.00555556 </v>
    <v>       0.00555556 </v>
    <v>       0.00555556 </v>
    <v>       0.00555556 </v>
    <v>       0.00555556 </v>
    <v>       0.00555556 </v>
    <v>       0.00555556 </v>
    <v>       0.00555556 </v>
    <v>       0.00555556 </v>
    <v>       0.00555556 </v>
    <v>       0.00555556 </v>
    <v>       0.00555556 </v>
    <v>       0.00555556 </v>
    <v>       0.00555556 </v>
    <v>       0.00555556 </v>
    <v>       0.00555556 </v>
    <v>       0.00555556 </v>
    <v>       0.00555556 </v>
    <v>       0.00555556 </v>
    <v>       0.00555556 </v>
    <v>       0.00555556 </v>
    <v>       0.00555556 </v>
    <v>       0.00555556 </v>
    <v>       0.00555556 </v>
    <v>       0.00555556 </v>
    <v>       0.00555556 </v>
    <v>       0.00555556 </v>
    <v>       0.00555556 </v>
    <v>       0.00555556 </v>
    <v>       0.00555556 </v>
    <v>       0.00555556 </v>
    <v>       0.00555556 </v>
    <v>       0.00555556 </v>
    <v>       0.00555556 </v>
    <v>       0.00555556 </v>
    <v>       0.00555556 </v>
    <v>       0.00555556 </v>
    <v>       0.00555556 </v>
    <v>       0.00555556 </v>
    <v>       0.00555556 </v>
    <v>       0.00555556 </v>
    <v>       0.00555556 </v>
    <v>       0.00555556 </v>
    <v>       0.00555556 </v>
    <v>       0.00555556 </v>
    <v>       0.00555556 </v>
    <v>       0.00555556 </v>
    <v>       0.00555556 </v>
    <v>       0.00555556 </v>
    <v>       0.00555556 </v>
    <v>       0.00555556 </v>
    <v>       0.00555556 </v>
    <v>       0.00555556 </v>
    <v>       0.00555556 </v>
    <v>       0.00555556 </v>
    <v>       0.00555556 </v>
    <v>       0.00555556 </v>
    <v>       0.00555556 </v>
    <v>       0.00555556 </v>
    <v>       0.00555556 </v>
    <v>       0.00555556 </v>
    <v>       0.00555556 </v>
    <v>       0.00555556 </v>
    <v>       0.00555556 </v>
[...]
       <r>   16.3668    0.0000 </r>
       <r>   16.8178    0.0000 </r>
      </set>
      <set comment="kpoint 108">
       <r>  -14.9566    1.0000 </r>
       <r>  -14.9566    1.0000 </r>
       <r>  -14.3639    1.0000 </r>
       <r>  -14.3639    1.0000 </r>
       <r>  -14.0092    1.0000 </r>
       <r>  -14.0092    1.0000 </r>
       <r>  -13.9590    1.0000 </r>
       <r>  -13.9590    1.0000 </r>
       <r>  -13.9074    1.0000 </r>
       <r>  -13.9074    1.0000 </r>
       <r>  -11.1829    1.0000 </r>
       <r>  -11.1829    1.0000 </r>
       <r>   -9.6859    1.0000 </r>
       <r>   -9.6859    1.0000 </r>
       <r>   -1.7936    1.0000 </r>
       <r>   -1.7936    1.0000 </r>
       <r>    1.0621    1.0000 </r>
       <r>    1.0621    1.0000 </r>
       <r>    2.4356    1.0000 </r>
       <r>    2.4356    1.0000 </r>
       <r>    4.2785    1.0000 </r>
       <r>    4.2785    1.0000 </r>
       <r>    4.9235    1.0000 </r>
       <r>    4.9235    1.0000 </r>
       <r>    5.0590    1.0000 </r>
       <r>    5.0590    1.0000 </r>
       <r>   10.8922    0.0000 </r>
       <r>   10.8922    0.0000 </r>
       <r>   14.6879    0.0000 </r>
       <r>   14.6879    0.0000 </r>
       <r>   16.7112    0.0000 </r>
       <r>   16.7112    0.0000 </r>
      </set>
      <set comment="kpoint 109">
       <r>  -15.0393    1.0000 </r>
       <r>  -14.8959    1.0000 </r>
       <r>  -14.4499    1.0000 </r>
       <r>  -14.2169    1.0000 </r>
       <r>  -14.0118    1.0000 </r>
       <r>  -14.0098    1.0000 </r>
       <r>  -13.9609    1.0000 </r>
       <r>  -13.9573    1.0000 </r>
       <r>  -13.9067    1.0000 </r>
       <r>  -13.9046    1.0000 </r>
       <r>  -11.3904    1.0000 </r>
       <r>  -11.1003    1.0000 </r>
       <r>   -9.7535    1.0000 </r>
       <r>   -9.5502    1.0000 </r>
       <r>   -1.8093    1.0000 </r>
       <r>   -1.4547    1.0000 </r>
       <r>    1.1435    1.0000 </r>
       <r>    1.1573    1.0000 </r>
       <r>    1.4673    1.0000 </r>
       <r>    3.3381    1.0000 </r>
       <r>    3.3554    1.0000 </r>
       <r>    4.8083    1.0000 </r>
       <r>    4.8513    1.0000 </r>
       <r>    4.8608    1.0000 </r>
       <r>    4.9248    1.0000 </r>
       <r>    5.0336    1.0000 </r>
       <r>   11.0276    0.0000 </r>
       <r>   11.2763    0.0000 </r>
       <r>   14.1836    0.0000 </r>
       <r>   15.2650    0.0000 </r>
       <r>   16.3668    0.0000 </r>
       <r>   16.8178    0.0000 </r>
      </set>
      <set comment="kpoint 110">
       <r>  -14.8991    1.0000 </r>
       <r>  -14.8991    1.0000 </r>
       <r>  -14.4528    1.0000 </r>
       <r>  -14.4528    1.0000 </r>
       <r>  -14.0067    1.0000 </r>
       <r>  -14.0067    1.0000 </r>
       <r>  -13.9595    1.0000 </r>
       <r>  -13.9595    1.0000 </r>
       <r>  -13.9102    1.0000 </r>
       <r>  -13.9102    1.0000 </r>
       <r>  -11.0563    1.0000 </r>
       <r>  -11.0563    1.0000 </r>
       <r>   -9.7728    1.0000 </r>
       <r>   -9.7728    1.0000 </r>
       <r>   -1.9704    1.0000 </r>
       <r>   -1.9704    1.0000 </r>
       <r>    0.9997    1.0000 </r>
       <r>    0.9997    1.0000 </r>
       <r>    3.3807    1.0000 </r>
       <r>    3.3807    1.0000 </r>
       <r>    3.5366    1.0000 </r>
       <r>    3.5366    1.0000 </r>
       <r>    5.0028    1.0000 </r>
       <r>    5.0028    1.0000 </r>
       <r>    5.1327    1.0000 </r>
       <r>    5.1327    1.0000 </r>
       <r>   10.6080    0.0000 </r>
       <r>   10.6080    0.0000 </r>
       <r>   14.7628    0.0000 </r>
       <r>   14.7628    0.0000 </r>
       <r>   16.8070    0.0000 </r>
       <r>   16.8085    0.0000 </r>
      </set>
     </set>
    </set>
   </array>
  </eigenvalues>
  <separator name="orbital magnetization" >
   <v name="MAGDIPOLOUT">      0.00000000      0.00000000      0.00000000</v>
  </separator>
  <dos>
   <i name="efermi">      6.01660766 </i>
   <total>
    <array>
     <dimension dim="1">gridpoints</dimension>
     <dimension dim="2">spin</dimension>
     <field>energy</field>
     <field>total</field>
     <field>integrated</field>
     <set>
      <set comment="spin 1">
       <r>   -16.7878     0.0000     0.0000 </r>
       <r>   -16.6672     0.0000     0.0000 </r>
       <r>   -16.5466     0.0000     0.0000 </r>
       <r>   -16.4260     0.0000     0.0000 </r>
       <r>   -16.3055     0.0000     0.0000 </r>
       <r>   -16.1849     0.0000     0.0000 </r>
       <r>   -16.0643     0.0000     0.0000 </r>
       <r>   -15.9437     0.0000     0.0000 </r>
       <r>   -15.8231     0.0000     0.0000 </r>
       <r>   -15.7026     0.0000     0.0000 </r>
       <r>   -15.5820     0.0000     0.0000 </r>
       <r>   -15.4614     0.0000     0.0000 </r>
       <r>   -15.3408     0.0000     0.0000 </r>
       <r>   -15.2203     0.0000     0.0000 </r>
       <r>   -15.0997     0.1996     0.0241 </r>
       <r>   -14.9791     4.7031     0.7393 </r>
       <r>   -14.8585     8.6478     2.1150 </r>
       <r>   -14.7379     5.0640     3.1162 </r>
       <r>   -14.6174     3.3572     3.6548 </r>
       <r>   -14.4968     1.9480     4.0738 </r>
       <r>   -14.3762     6.1514     5.1584 </r>
       <r>   -14.2556     2.9279     5.7975 </r>
       <r>   -14.1350     8.9588     8.0913 </r>
       <r>   -14.0145    15.8804    10.9315 </r>
       <r>   -13.8939    51.3017    19.9359 </r>
       <r>   -13.7733     0.0000    20.0000 </r>
       <r>   -13.6527     0.0000    20.0000 </r>
       <r>   -13.5322     0.0000    20.0000 </r>
       <r>   -13.4116     0.0000    20.0000 </r>
       <r>   -13.2910     0.0000    20.0000 </r>
       <r>   -13.1704     0.0000    20.0000 </r>
       <r>   -13.0498     0.0000    20.0000 </r>
       <r>   -12.9293     0.0008    20.0001 </r>
       <r>   -12.8087     0.2761    20.0389 </r>
       <r>   -12.6881     0.2307    20.1112 </r>
       <r>   -12.5675     0.5357    20.2257 </r>
       <r>   -12.4470     1.1048    20.3610 </r>
       <r>   -12.3264     1.1439    20.4990 </r>
       <r>   -12.2058     1.0512    20.6768 </r>
       <r>   -12.0852     0.7233    20.7928 </r>
       <r>   -11.9646     0.9259    21.0172 </r>
       <r>   -11.8441     0.8759    21.1890 </r>
       <r>   -11.7235     1.1272    21.4081 </r>
       <r>   -11.6029     0.4819    21.7081 </r>
       <r>   -11.4823     1.2823    22.0713 </r>
       <r>   -11.3617     1.3791    22.4830 </r>
       <r>   -11.2412     1.7005    22.7217 </r>
       <r>   -11.1206     2.7734    23.3177 </r>
       <r>   -11.0000     2.3537    23.8227 </r>
       <r>   -10.8794     0.4119    23.9330 </r>
       <r>   -10.7589     1.1066    24.1279 </r>
       <r>   -10.6383     1.7605    24.3845 </r>
       <r>   -10.5177     1.1058    24.6500 </r>
       <r>   -10.3971     0.3719    24.7393 </r>
       <r>   -10.2765     0.0000    24.9167 </r>
       <r>   -10.1560     2.1043    25.2371 </r>
       <r>   -10.0354     2.1301    25.5513 </r>
       <r>    -9.9148     0.3825    25.7294 </r>
       <r>    -9.7942     2.0829    26.1345 </r>
       <r>    -9.6737     2.6756    26.8171 </r>
       <r>    -9.5531     3.2551    27.5536 </r>
       <r>    -9.4325     1.1736    27.9915 </r>
       <r>    -9.3119     0.0461    28.0000 </r>
       <r>    -9.1913     0.0000    28.0000 </r>
       <r>    -9.0708     0.0000    28.0000 </r>
       <r>    -8.9502     0.0000    28.0000 </r>
       <r>    -8.8296     0.0000    28.0000 </r>
       <r>    -8.7090     0.0000    28.0000 </r>
       <r>    -8.5884     0.0000    28.0000 </r>
       <r>    -8.4679     0.0000    28.0000 </r>
       <r>    -8.3473     0.0000    28.0000 </r>
       <r>    -8.2267     0.0000    28.0000 </r>
       <r>    -8.1061     0.0000    28.0000 </r>
       <r>    -7.9856     0.0000    28.0000 </r>
       <r>    -7.8650     0.0000    28.0000 </r>
       <r>    -7.7444     0.0000    28.0000 </r>
       <r>    -7.6238     0.0000    28.0000 </r>
       <r>    -7.5032     0.0000    28.0000 </r>
       <r>    -7.3827     0.0000    28.0000 </r>
       <r>    -7.2621     0.0000    28.0000 </r>
       <r>    -7.1415     0.0000    28.0000 </r>
       <r>    -7.0209     0.0000    28.0000 </r>
       <r>    -6.9003     0.0000    28.0000 </r>
       <r>    -6.7798     0.0000    28.0000 </r>
       <r>    -6.6592     0.0000    28.0000 </r>
       <r>    -6.5386     0.0000    28.0000 </r>
       <r>    -6.4180     0.0000    28.0000 </r>
       <r>    -6.2975     0.0000    28.0000 </r>
       <r>    -6.1769     0.0000    28.0000 </r>
       <r>    -6.0563     0.0000    28.0000 </r>
       <r>    -5.9357     0.0000    28.0000 </r>
       <r>    -5.8151     0.0000    28.0000 </r>
       <r>    -5.6946     0.0000    28.0000 </r>
       <r>    -5.5740     0.0000    28.0000 </r>
       <r>    -5.4534     0.0000    28.0000 </r>
       <r>    -5.3328     0.0000    28.0000 </r>
       <r>    -5.2123     0.0000    28.0000 </r>
       <r>    -5.0917     0.0000    28.0000 </r>
       <r>    -4.9711     0.0000    28.0000 </r>
       <r>    -4.8505     0.0000    28.0000 </r>
       <r>    -4.7299     0.0000    28.0000 </r>
       <r>    -4.6094     0.0000    28.0000 </r>
       <r>    -4.4888     0.0000    28.0000 </r>
       <r>    -4.3682     0.0000    28.0000 </r>
       <r>    -4.2476     0.0000    28.0000 </r>
       <r>    -4.1270     0.0000    28.0000 </r>
       <r>    -4.0065     0.0000    28.0000 </r>
       <r>    -3.8859     0.0000    28.0000 </r>
       <r>    -3.7653     0.0000    28.0000 </r>
       <r>    -3.6447     0.0000    28.0000 </r>
       <r>    -3.5242     0.0000    28.0000 </r>
       <r>    -3.4036     0.0000    28.0000 </r>
       <r>    -3.2830     0.0000    28.0000 </r>
       <r>    -3.1624     0.0000    28.0000 </r>
       <r>    -3.0418     0.0000    28.0000 </r>
       <r>    -2.9213     0.0000    28.0000 </r>
       <r>    -2.8007     0.0000    28.0000 </r>
       <r>    -2.6801     0.0000    28.0000 </r>
       <r>    -2.5595     0.0000    28.0000 </r>
       <r>    -2.4389     0.0000    28.0000 </r>
       <r>    -2.3184     0.0000    28.0000 </r>
       <r>    -2.1978     0.0000    28.0000 </r>
       <r>    -2.0772     0.1384    28.0278 </r>
       <r>    -1.9566     0.8898    28.1462 </r>
       <r>    -1.8361     0.3686    28.2056 </r>
       <r>    -1.7155     1.9351    28.4611 </r>
       <r>    -1.5949     1.8355    28.6824 </r>
       <r>    -1.4743     0.8067    28.7806 </r>
       <r>    -1.3537     2.0218    29.1049 </r>
       <r>    -1.2332     2.1151    29.4050 </r>
       <r>    -1.1126     1.8429    29.7611 </r>
       <r>    -0.9920     0.3687    29.8056 </r>
       <r>    -0.8714     0.7570    29.9413 </r>
       <r>    -0.7509     1.4648    30.2044 </r>
       <r>    -0.6303     0.8645    30.3098 </r>
       <r>    -0.5097     2.9346    30.6705 </r>
       <r>    -0.3891     1.5674    30.8612 </r>
       <r>    -0.2685     0.7372    30.9944 </r>
       <r>    -0.1480     0.3686    31.0389 </r>
       <r>    -0.0274     0.7372    31.1278 </r>
       <r>     0.0932     0.0551    31.1344 </r>
       <r>     0.2138     0.9215    31.3278 </r>
       <r>     0.3344     0.3686    31.3722 </r>
       <r>     0.4549     0.8312    31.4724 </r>
       <r>     0.5755     0.5598    31.7619 </r>
       <r>     0.6961     0.8062    31.8805 </r>
       <r>     0.8167     0.7362    32.1277 </r>
       <r>     0.9372     0.7368    32.3277 </r>
       <r>     1.0578     1.3490    32.5793 </r>
       <r>     1.1784     1.4838    32.8289 </r>
       <r>     1.2990     1.8426    33.1611 </r>
       <r>     1.4196     1.5789    33.3737 </r>
       <r>     1.5401     2.5583    33.8474 </r>
       <r>     1.6607     0.2504    34.0135 </r>
       <r>     1.7813     3.2924    34.5581 </r>
       <r>     1.9019     0.8593    34.9203 </r>
       <r>     2.0224     3.2453    35.5191 </r>
       <r>     2.1430     2.0499    35.9361 </r>
       <r>     2.2636     2.4655    36.3528 </r>
       <r>     2.3842     3.1391    36.9341 </r>
       <r>     2.5048     3.4914    37.4210 </r>
       <r>     2.6253     0.4834    37.6805 </r>
       <r>     2.7459     1.4964    37.9027 </r>
       <r>     2.8665     3.1588    38.3920 </r>
       <r>     2.9871     2.5572    38.8139 </r>
       <r>     3.1077     1.8441    39.1724 </r>
       <r>     3.2282     2.4100    39.5739 </r>
       <r>     3.3488     2.0037    39.9138 </r>
       <r>     3.4694     1.8615    40.3189 </r>
       <r>     3.5900     1.5659    40.7166 </r>
       <r>     3.7105     3.0399    41.0832 </r>
       <r>     3.8311     1.1764    41.3141 </r>
       <r>     3.9517     2.0021    41.7803 </r>
       <r>     4.0723     1.8580    42.3018 </r>
       <r>     4.1929     2.1504    42.6537 </r>
       <r>     4.3134     3.9935    43.4982 </r>
       <r>     4.4340     4.2156    44.3139 </r>
       <r>     4.5546     2.4259    44.7647 </r>
       <r>     4.6752     5.0596    45.6379 </r>
       <r>     4.7958     5.2173    46.5680 </r>
       <r>     4.9163     7.2649    47.7927 </r>
       <r>     5.0369     3.5328    48.4982 </r>
       <r>     5.1575     8.7020    49.9659 </r>
       <r>     5.2781     4.0937    50.9881 </r>
       <r>     5.3986     0.9490    51.3755 </r>
       <r>     5.5192     2.6663    51.7382 </r>
       <r>     5.6398     0.8205    51.8489 </r>
       <r>     5.7604     0.5958    51.9218 </r>
       <r>     5.8810     0.2733    51.9941 </r>
       <r>     6.0015     0.0461    52.0000 </r>
       <r>     6.1221     0.0000    52.0000 </r>
       <r>     6.2427     0.0000    52.0000 </r>
       <r>     6.3633     0.0000    52.0000 </r>
       <r>     6.4838     0.0000    52.0000 </r>
       <r>     6.6044     0.0000    52.0000 </r>
       <r>     6.7250     0.0000    52.0000 </r>
       <r>     6.8456     0.0000    52.0000 </r>
       <r>     6.9662     0.0030    52.0004 </r>
       <r>     7.0867     0.0000    52.0056 </r>
       <r>     7.2073     0.0000    52.0056 </r>
       <r>     7.3279     0.0000    52.0056 </r>
       <r>     7.4485     0.0000    52.0056 </r>
       <r>     7.5691     0.0000    52.0056 </r>
       <r>     7.6896     0.2096    52.0308 </r>
       <r>     7.8102     0.0000    52.0389 </r>
       <r>     7.9308     0.0000    52.0389 </r>
       <r>     8.0514     0.0000    52.0389 </r>
       <r>     8.1719     0.3493    52.0810 </r>
       <r>     8.2925     0.0000    52.1056 </r>
       <r>     8.4131     0.0000    52.1056 </r>
       <r>     8.5337     0.0000    52.1056 </r>
       <r>     8.6543     0.0000    52.1500 </r>
       <r>     8.7748     0.0000    52.1500 </r>
       <r>     8.8954     0.0003    52.1500 </r>
       <r>     9.0160     0.1843    52.1833 </r>
       <r>     9.1366     0.0000    52.1833 </r>
       <r>     9.2572     1.0735    52.3128 </r>
       <r>     9.3777     0.0000    52.3167 </r>
       <r>     9.4983     1.0894    52.4480 </r>
       <r>     9.6189     0.0000    52.4500 </r>
       <r>     9.7395     0.0000    52.4500 </r>
       <r>     9.8600     0.0944    52.4614 </r>
       <r>     9.9806     0.2750    52.5054 </r>
       <r>    10.1012     0.8206    52.6156 </r>
       <r>    10.2218     0.2764    52.6833 </r>
       <r>    10.3424     0.7372    52.7722 </r>
       <r>    10.4629     1.1060    52.9056 </r>
       <r>    10.5835     0.0104    53.0401 </r>
       <r>    10.7041     1.0823    53.1916 </r>
       <r>    10.8247     1.3668    53.3592 </r>
       <r>    10.9452     2.2256    53.6850 </r>
       <r>    11.0658     1.6856    53.9977 </r>
       <r>    11.1864     0.2764    54.0722 </r>
       <r>    11.3070     1.7156    54.2791 </r>
       <r>    11.4276     1.2695    54.6031 </r>
       <r>    11.5481     0.5610    54.6954 </r>
       <r>    11.6687     0.7380    54.9168 </r>
       <r>    11.7893     0.3686    55.0944 </r>
       <r>    11.9099     0.3862    55.1410 </r>
       <r>    12.0305     2.2045    55.4658 </r>
       <r>    12.1510     0.4240    55.5622 </r>
       <r>    12.2716     0.3762    55.6676 </r>
       <r>    12.3922     0.8586    55.8369 </r>
       <r>    12.5128     0.8473    55.9911 </r>
       <r>    12.6333     0.4755    56.1018 </r>
       <r>    12.7539     0.4607    56.1889 </r>
       <r>    12.8745     0.9870    56.3079 </r>
       <r>    12.9951     0.5531    56.4556 </r>
       <r>    13.1157     0.5517    56.5665 </r>
       <r>    13.2362     1.1253    56.7246 </r>
       <r>    13.3568     0.4596    56.9110 </r>
       <r>    13.4774     0.7303    57.0881 </r>
       <r>    13.5980     0.7376    57.1778 </r>
       <r>    13.7185     0.4693    57.2788 </r>
       <r>    13.8391     0.5729    57.3802 </r>
       <r>    13.9597     0.1783    57.4882 </r>
       <r>    14.0803     2.0155    57.7986 </r>
       <r>    14.2009     0.9747    57.9842 </r>
       <r>    14.3214     1.6578    58.4666 </r>
       <r>    14.4420     1.0732    58.5961 </r>
       <r>    14.5626     0.7298    58.7769 </r>
       <r>    14.6832     1.9545    59.0579 </r>
       <r>    14.8038     1.2506    59.2952 </r>
       <r>    14.9243     1.6477    59.6431 </r>
       <r>    15.0449     1.4448    59.8631 </r>
       <r>    15.1655     2.6930    60.1914 </r>
       <r>    15.2861     0.9209    60.3333 </r>
       <r>    15.4066     1.1058    60.4667 </r>
       <r>    15.5272     0.3682    60.5111 </r>
       <r>    15.6478     1.1059    60.6667 </r>
       <r>    15.7684     0.3686    60.8444 </r>
       <r>    15.8890     0.7201    60.9757 </r>
       <r>    16.0095     0.9676    61.1833 </r>
       <r>    16.1301     1.8789    61.5154 </r>
       <r>    16.2507     0.0000    61.6000 </r>
       <r>    16.3713     2.6043    61.9140 </r>
       <r>    16.4919     1.4815    62.2675 </r>
       <r>    16.6124     3.1623    62.8369 </r>
       <r>    16.7330     1.7135    63.1288 </r>
       <r>    16.8536     1.1058    63.4778 </r>
       <r>    16.9742     1.1066    63.6556 </r>
       <r>    17.0947     0.2341    63.7282 </r>
       <r>    17.2153     0.4607    63.8111 </r>
       <r>    17.3359     1.4744    63.9889 </r>
       <r>    17.4565     0.0000    63.9889 </r>
       <r>    17.5771     0.0000    63.9889 </r>
       <r>    17.6976     0.0000    63.9889 </r>
       <r>    17.8182     0.0921    64.0000 </r>
       <r>    17.9388     0.0000    64.0000 </r>
       <r>    18.0594     0.0000    64.0000 </r>
       <r>    18.1799     0.0000    64.0000 </r>
       <r>    18.3005     0.0000    64.0000 </r>
       <r>    18.4211     0.0000    64.0000 </r>
       <r>    18.5417     0.0000    64.0000 </r>
       <r>    18.6623     0.0000    64.0000 </r>
       <r>    18.7828     0.0000    64.0000 </r>
       <r>    18.9034     0.0000    64.0000 </r>
       <r>    19.0240     0.0000    64.0000 </r>
       <r>    19.1446     0.0000    64.0000 </r>
       <r>    19.2652     0.0000    64.0000 </r>
       <r>    19.3857     0.0000    64.0000 </r>
      </set>
     </set>
    </array>
   </total>
  </dos>
 </calculation>
 <structure name="finalpos" >
  <crystal>
   <varray name="basis" >
    <v>       4.76481768       0.00000000       0.00000000 </v>
    <v>       0.00000000       4.76481768       0.00000000 </v>
    <v>       0.00000000       0.00000000       3.20749952 </v>
   </varray>
   <i name="volume">     72.82142539 </i>
   <varray name="rec_basis" >
    <v>       0.20987162       0.00000000       0.00000000 </v>
    <v>       0.00000000       0.20987162       0.00000000 </v>
    <v>       0.00000000       0.00000000       0.31176934 </v>
   </varray>
  </crystal>
  <varray name="positions" >
   <v>       0.50000004       0.50000004       0.50000004 </v>
   <v>       0.00000000       0.00000000       0.00000000 </v>
   <v>       0.80597236       0.19402772       0.50000004 </v>
   <v>       0.19402772       0.80597236       0.50000004 </v>
   <v>       0.30597232       0.30597232       0.00000000 </v>
   <v>       0.69402776       0.69402776       0.00000000 </v>
  </varray>
 </structure>
</modeling>
