
     Program PWSCF v.7.1 starts on  8Apr2024 at 15:10:35 

     This program is part of the open-source Quantum ESPRESSO suite
     for quantum simulation of materials; please cite
         "P. Giannozzi et al., J. Phys.:Condens. Matter 21 395502 (2009);
         "P. Giannozzi et al., J. Phys.:Condens. Matter 29 465901 (2017);
         "P. Giannozzi et al., J. Chem. Phys. 152 154105 (2020);
          URL http://www.quantum-espresso.org", 
     in publications or presentations arising from this work. More details at
     http://www.quantum-espresso.org/quote

     Parallel version (MPI), running on    16 processors

     MPI processes distributed on     1 nodes
     247366 MiB available memory on the printing compute node when the environment starts
 
     Reading input from pw_mp-2490_scf_k3000_E65.in
Warning: card &CELL ignored
Warning: card / ignored

     Current dimensions of program PWSCF are:
     Max number of different atomic species (ntypx) = 10
     Max number of k-points (npk) =  40000
     Max angular momentum in pseudopotentials (lmaxx) =  4
 
     R & G space division:  proc/nbgrp/npool/nimage =      16
     Subspace diagonalization in iterative solution of the eigenvalue problem:
     a serial algorithm will be used

 
     Parallelization info
     --------------------
     sticks:   dense  smooth     PW     G-vecs:    dense   smooth      PW
     Min          59      59     18                 1207     1207     200
     Max          60      60     20                 1210     1210     202
     Sum         955     955    295                19339    19339    3215
 
     Using Slab Decomposition
 


     bravais-lattice index     =            2
     lattice parameter (alat)  =      10.3021  a.u.
     unit-cell volume          =     273.3471 (a.u.)^3
     number of atoms/cell      =            2
     number of atomic types    =            2
     number of electrons       =        18.00
     number of Kohn-Sham states=           18
     kinetic-energy cutoff     =      65.0000  Ry
     charge density cutoff     =     260.0000  Ry
     scf convergence threshold =      1.0E-10
     mixing beta               =       0.7000
     number of iterations used =            8  plain     mixing
     Exchange-correlation= PBE
                           (   1   4   3   4   0   0   0)

     celldm(1)=  10.302077  celldm(2)=   0.000000  celldm(3)=   0.000000
     celldm(4)=   0.000000  celldm(5)=   0.000000  celldm(6)=   0.000000

     crystal axes: (cart. coord. in units of alat)
               a(1) = (  -0.500000   0.000000   0.500000 )  
               a(2) = (   0.000000   0.500000   0.500000 )  
               a(3) = (  -0.500000   0.500000   0.000000 )  

     reciprocal axes: (cart. coord. in units 2 pi/alat)
               b(1) = ( -1.000000 -1.000000  1.000000 )  
               b(2) = (  1.000000  1.000000  1.000000 )  
               b(3) = ( -1.000000  1.000000 -1.000000 )  


     PseudoPot. # 1 for Ga read from file:
     /usr/scratch4/magr4826/Promotion/Python/Code/devEb/pseudo/SG15/Ga.upf
     MD5 check sum: 9961a622ff199abf6dfec9a0a10b8555
     Pseudo is Norm-conserving, Zval = 13.0
     Generated using ONCVPSP code by D. R. Hamann
     Using radial grid of  602 points,  6 beta functions with: 
                l(1) =   0
                l(2) =   0
                l(3) =   1
                l(4) =   1
                l(5) =   2
                l(6) =   2

     PseudoPot. # 2 for P  read from file:
     /usr/scratch4/magr4826/Promotion/Python/Code/devEb/pseudo/SG15/P.upf
     MD5 check sum: 0688a67b2b263c6b42d3d97c42745426
     Pseudo is Norm-conserving, Zval =  5.0
     Generated using ONCVPSP code by D. R. Hamann
     Using radial grid of  602 points,  4 beta functions with: 
                l(1) =   0
                l(2) =   0
                l(3) =   1
                l(4) =   1

     atomic species   valence    mass     pseudopotential
        Ga            13.00    69.72300     Ga( 1.00)
        P              5.00    30.97380     P ( 1.00)

     24 Sym. Ops. (no inversion) found



   Cartesian axes

     site n.     atom                  positions (alat units)
         1           Ga  tau(   1) = (   0.0000000   0.0000000   0.0000000  )
         2           P   tau(   2) = (  -0.2500000   0.2500000   0.2500001  )

     number of k points=    72  Gaussian smearing, width (Ry)=  0.0005
                       cart. coord. in units 2pi/alat
        k(    1) = (   0.0000000   0.0000000   0.0000000), wk =   0.0011574
        k(    2) = (  -0.0833333   0.0833333  -0.0833333), wk =   0.0092593
        k(    3) = (  -0.1666667   0.1666667  -0.1666667), wk =   0.0092593
        k(    4) = (  -0.2500000   0.2500000  -0.2500000), wk =   0.0092593
        k(    5) = (  -0.3333333   0.3333333  -0.3333333), wk =   0.0092593
        k(    6) = (  -0.4166667   0.4166667  -0.4166667), wk =   0.0092593
        k(    7) = (   0.5000000  -0.5000000   0.5000000), wk =   0.0046296
        k(    8) = (   0.0000000   0.1666667   0.0000000), wk =   0.0069444
        k(    9) = (  -0.0833333   0.2500000  -0.0833333), wk =   0.0277778
        k(   10) = (  -0.1666667   0.3333333  -0.1666667), wk =   0.0277778
        k(   11) = (  -0.2500000   0.4166667  -0.2500000), wk =   0.0277778
        k(   12) = (  -0.3333333   0.5000000  -0.3333333), wk =   0.0277778
        k(   13) = (   0.5833333  -0.4166667   0.5833333), wk =   0.0277778
        k(   14) = (   0.5000000  -0.3333333   0.5000000), wk =   0.0277778
        k(   15) = (   0.4166667  -0.2500000   0.4166667), wk =   0.0277778
        k(   16) = (   0.3333333  -0.1666667   0.3333333), wk =   0.0277778
        k(   17) = (   0.2500000  -0.0833333   0.2500000), wk =   0.0277778
        k(   18) = (   0.1666667  -0.0000000   0.1666667), wk =   0.0138889
        k(   19) = (   0.0000000   0.3333333   0.0000000), wk =   0.0069444
        k(   20) = (  -0.0833333   0.4166667  -0.0833333), wk =   0.0277778
        k(   21) = (  -0.1666667   0.5000000  -0.1666667), wk =   0.0277778
        k(   22) = (  -0.2500000   0.5833333  -0.2500000), wk =   0.0277778
        k(   23) = (   0.6666667  -0.3333333   0.6666667), wk =   0.0277778
        k(   24) = (   0.5833333  -0.2500000   0.5833333), wk =   0.0277778
        k(   25) = (   0.5000000  -0.1666667   0.5000000), wk =   0.0277778
        k(   26) = (   0.4166667  -0.0833333   0.4166667), wk =   0.0277778
        k(   27) = (   0.3333333   0.0000000   0.3333333), wk =   0.0138889
        k(   28) = (   0.0000000   0.5000000   0.0000000), wk =   0.0069444
        k(   29) = (  -0.0833333   0.5833333  -0.0833333), wk =   0.0277778
        k(   30) = (  -0.1666667   0.6666667  -0.1666667), wk =   0.0277778
        k(   31) = (   0.7500000  -0.2500000   0.7500000), wk =   0.0277778
        k(   32) = (   0.6666667  -0.1666667   0.6666667), wk =   0.0277778
        k(   33) = (   0.5833333  -0.0833333   0.5833333), wk =   0.0277778
        k(   34) = (   0.5000000   0.0000000   0.5000000), wk =   0.0138889
        k(   35) = (   0.0000000   0.6666667   0.0000000), wk =   0.0069444
        k(   36) = (  -0.0833333   0.7500000  -0.0833333), wk =   0.0277778
        k(   37) = (   0.8333333  -0.1666667   0.8333333), wk =   0.0277778
        k(   38) = (   0.7500000  -0.0833333   0.7500000), wk =   0.0277778
        k(   39) = (   0.6666667  -0.0000000   0.6666667), wk =   0.0138889
        k(   40) = (   0.0000000   0.8333333   0.0000000), wk =   0.0069444
        k(   41) = (   0.9166667  -0.0833333   0.9166667), wk =   0.0277778
        k(   42) = (   0.8333333   0.0000000   0.8333333), wk =   0.0138889
        k(   43) = (   0.0000000  -1.0000000   0.0000000), wk =   0.0034722
        k(   44) = (  -0.1666667   0.3333333   0.0000000), wk =   0.0277778
        k(   45) = (  -0.2500000   0.4166667  -0.0833333), wk =   0.0555556
        k(   46) = (  -0.3333333   0.5000000  -0.1666667), wk =   0.0555556
        k(   47) = (   0.5833333  -0.4166667   0.7500000), wk =   0.0555556
        k(   48) = (   0.5000000  -0.3333333   0.6666667), wk =   0.0277778
        k(   49) = (  -0.1666667   0.5000000   0.0000000), wk =   0.0277778
        k(   50) = (  -0.2500000   0.5833333  -0.0833333), wk =   0.0555556
        k(   51) = (   0.6666667  -0.3333333   0.8333333), wk =   0.0555556
        k(   52) = (   0.5833333  -0.2500000   0.7500000), wk =   0.0555556
        k(   53) = (   0.5000000  -0.1666667   0.6666667), wk =   0.0555556
        k(   54) = (   0.4166667  -0.0833333   0.5833333), wk =   0.0555556
        k(   55) = (   0.3333333   0.0000000   0.5000000), wk =   0.0277778
        k(   56) = (  -0.1666667   0.6666667  -0.0000000), wk =   0.0277778
        k(   57) = (   0.7500000  -0.2500000   0.9166667), wk =   0.0555556
        k(   58) = (   0.6666667  -0.1666667   0.8333333), wk =   0.0555556
        k(   59) = (   0.5833333  -0.0833333   0.7500000), wk =   0.0555556
        k(   60) = (   0.5000000   0.0000000   0.6666667), wk =   0.0277778
        k(   61) = (   0.8333333  -0.1666667   1.0000000), wk =   0.0277778
        k(   62) = (   0.7500000  -0.0833333   0.9166667), wk =   0.0555556
        k(   63) = (   0.6666667   0.0000000   0.8333333), wk =   0.0277778
        k(   64) = (  -0.1666667  -1.0000000  -0.0000000), wk =   0.0138889
        k(   65) = (   0.6666667  -0.3333333   1.0000000), wk =   0.0277778
        k(   66) = (   0.5833333  -0.2500000   0.9166667), wk =   0.0555556
        k(   67) = (   0.5000000  -0.1666667   0.8333333), wk =   0.0277778
        k(   68) = (   0.6666667  -0.1666667   1.0000000), wk =   0.0277778
        k(   69) = (   0.5833333  -0.0833333   0.9166667), wk =   0.0555556
        k(   70) = (   0.5000000   0.0000000   0.8333333), wk =   0.0277778
        k(   71) = (  -0.3333333  -1.0000000   0.0000000), wk =   0.0138889
        k(   72) = (  -0.5000000  -1.0000000   0.0000000), wk =   0.0069444

     Dense  grid:    19339 G-vectors     FFT dimensions: (  40,  40,  40)

     Estimated max dynamical RAM per process >       6.78 MB

     Estimated total dynamical RAM >     108.46 MB

     Initial potential from superposition of free atoms

     starting charge      17.9017, renormalised to      18.0000
     Starting wfcs are random

     total cpu time spent up to now is        0.4 secs

     Self-consistent Calculation

     iteration #  1     ecut=    65.00 Ry     beta= 0.70
     Davidson diagonalization with overlap
     c_bands:  1 eigenvalues not converged
     c_bands:  1 eigenvalues not converged
     c_bands:  2 eigenvalues not converged
     c_bands:  1 eigenvalues not converged
     c_bands:  2 eigenvalues not converged
     c_bands:  1 eigenvalues not converged
     c_bands:  1 eigenvalues not converged
     c_bands:  1 eigenvalues not converged
     c_bands:  1 eigenvalues not converged
     c_bands:  1 eigenvalues not converged
     c_bands:  1 eigenvalues not converged
     c_bands:  1 eigenvalues not converged
     c_bands:  1 eigenvalues not converged
     c_bands:  2 eigenvalues not converged
     c_bands:  1 eigenvalues not converged
     c_bands:  1 eigenvalues not converged
     c_bands:  1 eigenvalues not converged
     c_bands:  1 eigenvalues not converged
     c_bands:  1 eigenvalues not converged
     c_bands:  1 eigenvalues not converged
     c_bands:  2 eigenvalues not converged
     c_bands:  2 eigenvalues not converged
     c_bands:  1 eigenvalues not converged
     c_bands:  2 eigenvalues not converged
     c_bands:  2 eigenvalues not converged
     c_bands:  1 eigenvalues not converged
     c_bands:  1 eigenvalues not converged
     c_bands:  1 eigenvalues not converged
     c_bands:  1 eigenvalues not converged
     c_bands:  2 eigenvalues not converged
     c_bands:  1 eigenvalues not converged
     c_bands:  1 eigenvalues not converged
     c_bands:  1 eigenvalues not converged
     c_bands:  1 eigenvalues not converged
     c_bands:  1 eigenvalues not converged
     c_bands:  1 eigenvalues not converged
     c_bands:  1 eigenvalues not converged
     c_bands:  2 eigenvalues not converged
     c_bands:  3 eigenvalues not converged
     c_bands:  1 eigenvalues not converged
     c_bands:  1 eigenvalues not converged
     c_bands:  1 eigenvalues not converged
     c_bands:  2 eigenvalues not converged
     c_bands:  1 eigenvalues not converged
     c_bands:  2 eigenvalues not converged
     c_bands:  3 eigenvalues not converged
     c_bands:  2 eigenvalues not converged
     c_bands:  3 eigenvalues not converged
     c_bands:  1 eigenvalues not converged
     c_bands:  3 eigenvalues not converged
     c_bands:  1 eigenvalues not converged
     c_bands:  2 eigenvalues not converged
     c_bands:  1 eigenvalues not converged
     c_bands:  1 eigenvalues not converged
     c_bands:  2 eigenvalues not converged
     c_bands:  1 eigenvalues not converged
     c_bands:  1 eigenvalues not converged
     c_bands:  1 eigenvalues not converged
     ethr =  5.00E-06,  avg # of iterations = 19.8

     total cpu time spent up to now is        3.2 secs

     total energy              =    -144.51871155 Ry
     estimated scf accuracy    <       0.09256313 Ry

     iteration #  2     ecut=    65.00 Ry     beta= 0.70
     Davidson diagonalization with overlap
     ethr =  5.14E-04,  avg # of iterations =  2.5

     total cpu time spent up to now is        3.7 secs

     total energy              =    -144.54178204 Ry
     estimated scf accuracy    <       0.02367031 Ry

     iteration #  3     ecut=    65.00 Ry     beta= 0.70
     Davidson diagonalization with overlap
     ethr =  1.32E-04,  avg # of iterations =  2.1

     total cpu time spent up to now is        4.2 secs

     total energy              =    -144.54662483 Ry
     estimated scf accuracy    <       0.00054311 Ry

     iteration #  4     ecut=    65.00 Ry     beta= 0.70
     Davidson diagonalization with overlap
     ethr =  3.02E-06,  avg # of iterations =  5.0

     total cpu time spent up to now is        4.9 secs

     total energy              =    -144.54666311 Ry
     estimated scf accuracy    <       0.00001411 Ry

     iteration #  5     ecut=    65.00 Ry     beta= 0.70
     Davidson diagonalization with overlap
     ethr =  7.84E-08,  avg # of iterations =  5.1

     total cpu time spent up to now is        5.9 secs

     total energy              =    -144.54666650 Ry
     estimated scf accuracy    <       0.00000033 Ry

     iteration #  6     ecut=    65.00 Ry     beta= 0.70
     Davidson diagonalization with overlap
     ethr =  1.82E-09,  avg # of iterations =  6.2

     total cpu time spent up to now is        6.7 secs

     total energy              =    -144.54666663 Ry
     estimated scf accuracy    <       0.00000002 Ry

     iteration #  7     ecut=    65.00 Ry     beta= 0.70
     Davidson diagonalization with overlap
     ethr =  1.16E-10,  avg # of iterations =  5.4

     total cpu time spent up to now is        7.4 secs

     total energy              =    -144.54666664 Ry
     estimated scf accuracy    <          2.3E-10 Ry

     iteration #  8     ecut=    65.00 Ry     beta= 0.70
     Davidson diagonalization with overlap
     ethr =  1.28E-12,  avg # of iterations =  6.8

     total cpu time spent up to now is        8.1 secs

     End of self-consistent calculation

          k = 0.0000 0.0000 0.0000 (  2421 PWs)   bands (ev):

    -6.8733  -6.8733  -6.8733  -6.7730  -6.7730  -4.8314   7.6558   7.6558
     7.6558   9.4730  11.5549  11.5549  11.5549  16.4685  17.4096  17.4096
    20.1208  20.1208

          k =-0.0833 0.0833-0.0833 (  2427 PWs)   bands (ev):

    -6.8798  -6.8712  -6.8712  -6.7731  -6.7731  -4.7409   6.7551   7.5460
     7.5460   9.9674  11.7242  11.7242  11.7528  16.9161  17.0597  17.0597
    19.7290  20.7772

          k =-0.1667 0.1667-0.1667 (  2415 PWs)   bands (ev):

    -6.8964  -6.8655  -6.8655  -6.7729  -6.7729  -4.4756   5.2695   7.2863
     7.2863  10.0696  12.1026  12.1026  12.6873  16.6067  16.6067  17.7210
    19.4623  22.1987

          k =-0.2500 0.2500-0.2500 (  2439 PWs)   bands (ev):

    -6.9174  -6.8586  -6.8586  -6.7717  -6.7717  -4.0564   3.7826   6.9952
     6.9952   9.8138  12.4088  12.4088  14.0058  16.6221  16.6221  17.5924
    20.7507  23.8791

          k =-0.3333 0.3333-0.3333 (  2442 PWs)   bands (ev):

    -6.9369  -6.8528  -6.8528  -6.7693  -6.7693  -3.5301   2.4528   6.7515
     6.7515   9.5564  12.4786  12.4786  15.2572  17.2858  17.2858  17.3628
    22.4528  24.1545

          k =-0.4167 0.4167-0.4167 (  2428 PWs)   bands (ev):

    -6.9505  -6.8494  -6.8494  -6.7666  -6.7666  -3.0132   1.4406   6.5943
     6.5943   9.3876  12.4199  12.4199  15.8763  17.8851  18.4194  18.4194
    22.1265  22.3816

          k = 0.5000-0.5000 0.5000 (  2392 PWs)   bands (ev):

    -6.9553  -6.8483  -6.8483  -6.7654  -6.7654  -2.7692   1.0296   6.5405
     6.5405   9.3299  12.3832  12.3832  15.9475  18.5404  19.3171  19.3172
    21.2443  21.2443

          k = 0.0000 0.1667 0.0000 (  2433 PWs)   bands (ev):

    -6.8841  -6.8692  -6.8692  -6.7749  -6.7716  -4.7108   6.7859   7.3311
     7.3311  10.2698  11.2604  12.0118  12.0118  16.4471  17.0771  17.5182
    20.3682  20.3682

          k =-0.0833 0.2500-0.0833 (  2427 PWs)   bands (ev):

    -6.8978  -6.8645  -6.8636  -6.7765  -6.7702  -4.5039   5.6443   7.0145
     7.1325  10.5606  11.3302  12.4862  12.6683  15.8741  17.3716  17.8885
    19.9148  21.2065

          k =-0.1667 0.3333-0.1667 (  2424 PWs)   bands (ev):

    -6.9160  -6.8588  -6.8564  -6.7770  -6.7685  -4.1352   4.2278   6.7120
     6.8331  10.3915  11.7949  12.8761  13.4929  15.9195  17.3105  18.2567
    20.4065  22.7107

          k =-0.2500 0.4167-0.2500 (  2424 PWs)   bands (ev):

    -6.9344  -6.8532  -6.8502  -6.7755  -6.7664  -3.6400   2.8759   6.4905
     6.4944  10.1473  12.1108  12.9751  14.3128  16.7431  17.8166  17.9615
    21.9732  23.7991

          k =-0.3333 0.5000-0.3333 (  2424 PWs)   bands (ev):

    -6.9486  -6.8493  -6.8465  -6.7721  -6.7647  -3.1034   1.7585   6.2048
     6.3806   9.9600  12.1676  12.8536  15.3136  17.4264  18.3959  18.8014
    21.8723  22.2447

          k = 0.5833-0.4167 0.5833 (  2421 PWs)   bands (ev):

    -6.9557  -6.8475  -6.8453  -6.7686  -6.7649  -2.7345   1.1205   6.0085
     6.3916   9.8686  12.1956  12.6943  16.0271  17.8762  19.3144  19.4281
    20.7375  21.3663

          k = 0.5000-0.3333 0.5000 (  2423 PWs)   bands (ev):

    -6.9539  -6.8474  -6.8464  -6.7674  -6.7667  -2.8195   1.2606   5.9288
     6.5187   9.8849  12.3082  12.5912  16.0105  18.0089  18.1343  19.7851
    20.5643  22.6614

          k = 0.4167-0.2500 0.4167 (  2425 PWs)   bands (ev):

    -6.9438  -6.8497  -6.8492  -6.7713  -6.7671  -3.2786   2.0962   5.9786
     6.7451  10.0075  12.4868  12.5321  15.2529  16.8838  17.7655  18.9319
    21.6446  23.6997

          k = 0.3333-0.1667 0.3333 (  2424 PWs)   bands (ev):

    -6.9272  -6.8556  -6.8532  -6.7743  -6.7687  -3.8163   3.3095   6.1644
     7.0380  10.2182  12.4022  12.5587  14.1733  16.0852  17.5787  18.2348
    21.3164  23.6260

          k = 0.2500-0.0833 0.2500 (  2426 PWs)   bands (ev):

    -6.9079  -6.8627  -6.8592  -6.7753  -6.7704  -4.2750   4.6828   6.4909
     7.3381  10.4426  12.0984  12.1760  13.3158  15.9401  17.0339  18.3260
    19.9992  21.9584

          k = 0.1667-0.0000 0.1667 (  2427 PWs)   bands (ev):

    -6.8903  -6.8687  -6.8659  -6.7746  -6.7717  -4.5921   5.9731   6.9877
     7.5450  10.3757  11.6965  11.7801  12.5329  16.3621  17.0435  17.5634
    19.9306  20.6613

          k = 0.0000 0.3333 0.0000 (  2429 PWs)   bands (ev):

    -6.9104  -6.8576  -6.8576  -6.7804  -6.7676  -4.3576   5.3993   6.6571
     6.6571  10.4412  11.4548  13.0800  13.0800  15.2616  17.8413  18.5310
    21.1056  21.1056

          k =-0.0833 0.4167-0.0833 (  2432 PWs)   bands (ev):

    -6.9261  -6.8510  -6.8499  -6.7834  -6.7652  -4.0465   4.4093   6.3044
     6.3308  10.3810  11.5976  13.4860  13.6256  15.5180  17.9619  19.3495
    20.9070  22.0674

          k =-0.1667 0.5000-0.1667 (  2417 PWs)   bands (ev):

    -6.9410  -6.8464  -6.8430  -6.7839  -6.7630  -3.5970   3.2178   5.8644
     6.1014  10.4651  11.9194  13.4389  13.8583  16.7367  18.3624  19.3116
    21.8404  23.3617

          k =-0.2500 0.5833-0.2500 (  2417 PWs)   bands (ev):

    -6.9525  -6.8439  -6.8386  -6.7814  -6.7620  -3.0717   2.1158   5.4325
     5.9997  10.4214  12.2865  13.7607  13.8563  17.9418  19.1925  19.2190
    21.8095  22.2689

          k = 0.6667-0.3333 0.6667 (  2422 PWs)   bands (ev):

    -6.9587  -6.8433  -6.8371  -6.7770  -6.7632  -2.6279   1.3467   5.0954
     6.0350  10.3981  12.3437  13.5339  14.9648  18.0347  19.3325  19.9350
    20.8176  21.6681

          k = 0.5833-0.2500 0.5833 (  2419 PWs)   bands (ev):

    -6.9582  -6.8438  -6.8382  -6.7725  -6.7669  -2.5516   1.2297   4.8965
     6.2014  10.4692  12.3959  13.3163  15.8298  17.7440  17.9944  19.6614
    21.5860  23.0208

          k = 0.5000-0.1667 0.5000 (  2419 PWs)   bands (ev):

    -6.9512  -6.8453  -6.8420  -6.7718  -6.7696  -2.9122   1.8328   4.8681
     6.4768  10.6313  12.5501  13.1225  15.0856  16.6758  18.4527  20.0762
    20.9349  24.0413

          k = 0.4167-0.0833 0.4167 (  2424 PWs)   bands (ev):

    -6.9389  -6.8484  -6.8480  -6.7755  -6.7686  -3.4344   2.8322   5.0580
     6.8175  10.8303  12.7167  12.8534  13.9414  15.8145  18.9216  19.5858
    20.9946  22.9687

          k = 0.3333 0.0000 0.3333 (  2411 PWs)   bands (ev):

    -6.9235  -6.8561  -6.8527  -6.7766  -6.7689  -3.9164   3.8771   5.5757
     7.1452  10.8841  12.3989  12.4395  13.5188  15.6039  17.8970  19.3106
    20.3725  22.7492

          k = 0.0000 0.5000 0.0000 (  2429 PWs)   bands (ev):

    -6.9410  -6.8414  -6.8414  -6.7891  -6.7621  -3.7955   3.9830   5.9771
     5.9771   9.8472  11.3812  14.4115  14.4115  15.4515  18.3610  20.3637
    22.2872  22.2872

          k =-0.0833 0.5833-0.0833 (  2420 PWs)   bands (ev):

    -6.9543  -6.8348  -6.8335  -6.7923  -6.7596  -3.4016   3.1551   5.5457
     5.7226   9.8746  11.1959  14.4848  14.9170  16.6620  18.7543  20.8941
    22.4137  23.1515

          k =-0.1667 0.6667-0.1667 (  2413 PWs)   bands (ev):

    -6.9633  -6.8327  -6.8283  -6.7917  -6.7586  -2.9130   2.2606   4.9576
     5.6021  10.0530  11.6347  14.2617  14.9609  18.1699  19.4689  20.5676
    22.2448  22.3635

          k = 0.7500-0.2500 0.7500 (  2416 PWs)   bands (ev):

    -6.9668  -6.8342  -6.8263  -6.7876  -6.7602  -2.4480   1.5322   4.4274
     5.6283  10.1241  12.5901  14.2491  14.7281  18.4921  19.4080  20.8332
    21.3855  21.9566

          k = 0.6667-0.1667 0.6667 (  2403 PWs)   bands (ev):

    -6.9651  -6.8372  -6.8276  -6.7817  -6.7645  -2.2505   1.2615   4.0757
     5.7973  10.2711  13.2110  14.4174  14.9002  17.3047  18.0309  21.1232
    22.1786  23.3152

          k = 0.5833-0.0833 0.5833 (  2413 PWs)   bands (ev):

    -6.9590  -6.8406  -6.8321  -6.7758  -6.7701  -2.4852   1.6028   3.9808
     6.0884  10.5337  13.3760  14.0515  14.9866  16.7352  17.2204  21.2221
    22.5328  23.9366

          k = 0.5000 0.0000 0.5000 (  2421 PWs)   bands (ev):

    -6.9499  -6.8441  -6.8396  -6.7742  -6.7711  -2.9554   2.2516   4.2674
     6.4564  10.8295  13.3628  13.5140  13.9434  15.9661  18.7298  20.9498
    21.2839  22.5388

          k = 0.0000 0.6667 0.0000 (  2397 PWs)   bands (ev):

    -6.9675  -6.8246  -6.8246  -6.7985  -6.7566  -3.0688   2.6260   5.4363
     5.4363   9.4237  10.5777  15.8601  15.8601  16.7467  19.0283  22.1045
    23.1158  23.1158

          k =-0.0833 0.7500-0.0833 (  2415 PWs)   bands (ev):

    -6.9761  -6.8204  -6.8187  -6.8005  -6.7551  -2.6394   1.9637   5.0052
     5.2837   9.5496  10.4562  15.8972  16.2693  18.1057  19.5694  21.5198
    22.2311  23.3609

          k = 0.8333-0.1667 0.8333 (  2404 PWs)   bands (ev):

    -6.9781  -6.8225  -6.8164  -6.7976  -6.7563  -2.2113   1.4107   4.3523
     5.2821   9.7217  11.2035  15.6615  16.1209  18.7354  19.5494  20.8924
    21.9082  23.2195

          k = 0.7500-0.0833 0.7500 (  2409 PWs)   bands (ev):

    -6.9745  -6.8280  -6.8179  -6.7916  -6.7605  -1.9801   1.1702   3.8100
     5.4310   9.8836  12.4842  15.5085  15.6957  17.3744  18.2876  22.0550
    23.1744  23.2123

          k = 0.6667-0.0000 0.6667 (  2424 PWs)   bands (ev):

    -6.9673  -6.8346  -6.8233  -6.7839  -6.7659  -2.1094   1.3225   3.6187
     5.7134  10.1724  13.6232  15.0101  15.3488  16.2889  17.2223  22.7041
    23.4278  23.6983

          k = 0.0000 0.8333 0.0000 (  2446 PWs)   bands (ev):

    -6.9854  -6.8123  -6.8123  -6.8061  -6.7527  -2.2941   1.4620   5.0942
     5.0942   9.2561   9.8566  17.3238  17.3238  18.1418  19.7023  21.6224
    21.6224  22.8620

          k = 0.9167-0.0833 0.9167 (  2419 PWs)   bands (ev):

    -6.9878  -6.8129  -6.8098  -6.8046  -6.7527  -1.9785   1.0776   4.7286
     5.0558   9.4411   9.9725  17.2896  17.5057  18.8674  19.7516  20.7527
    21.2911  23.3755

          k = 0.8333 0.0000 0.8333 (  2420 PWs)   bands (ev):

    -6.9834  -6.8189  -6.8118  -6.7996  -6.7558  -1.8528   1.0016   4.1446
     5.1723   9.6018  11.0453  16.7356  16.8604  17.9609  18.8801  21.4374
    22.3524  24.2515

          k = 0.0000-1.0000 0.0000 (  2450 PWs)   bands (ev):

    -6.9915  -6.8089  -6.8077  -6.8077  -6.7512  -1.8727   0.9084   4.9776
     4.9776   9.3164   9.4869  18.2454  18.2454  18.8404  20.0306  20.5869
    20.5869  22.6482

          k =-0.1667 0.3333 0.0000 (  2424 PWs)   bands (ev):

    -6.9127  -6.8591  -6.8565  -6.7788  -6.7681  -4.2449   4.8191   6.2918
     7.0314  10.8133  11.3905  12.8728  13.2503  15.5952  17.4877  18.7420
    20.3017  21.5451

          k =-0.2500 0.4167-0.0833 (  2430 PWs)   bands (ev):

    -6.9292  -6.8530  -6.8497  -6.7796  -6.7664  -3.8351   3.6634   5.7565
     6.7834  10.8198  11.8016  13.2220  13.5201  15.9592  17.9991  19.1244
    20.9104  23.0501

          k =-0.3333 0.5000-0.1667 (  2427 PWs)   bands (ev):

    -6.9440  -6.8483  -6.8442  -6.7778  -6.7651  -3.3209   2.4794   5.4497
     6.4825  10.6677  12.0911  13.2915  14.1359  16.7770  18.6141  19.3016
    21.4432  23.4806

          k = 0.5833-0.4167 0.7500 (  2421 PWs)   bands (ev):

    -6.9543  -6.8460  -6.8407  -6.7742  -6.7649  -2.8174   1.5370   5.2952
     6.2522  10.5437  12.0538  13.2804  15.1912  17.5836  18.6751  19.9353
    20.6781  22.6609

          k = 0.5000-0.3333 0.6667 (  2412 PWs)   bands (ev):

    -6.9579  -6.8454  -6.8395  -6.7718  -6.7656  -2.5808   1.1493   5.2496
     6.1662  10.4991  12.0099  13.2560  15.9474  17.5451  18.8835  19.8988
    20.5357  22.5382

          k =-0.1667 0.5000 0.0000 (  2428 PWs)   bands (ev):

    -6.9406  -6.8443  -6.8420  -6.7865  -6.7628  -3.6938   3.6380   5.6094
     6.2078  10.4107  11.5938  13.4997  14.3088  16.1268  18.4184  20.1847
    21.2142  22.9770

          k =-0.2500 0.5833-0.0833 (  2422 PWs)   bands (ev):

    -6.9523  -6.8408  -6.8352  -6.7868  -6.7615  -3.2217   2.6940   5.0782
     5.9451  10.6512  11.8913  13.2504  14.7240  17.0332  19.3926  20.1232
    21.5763  23.3061

          k = 0.6667-0.3333 0.8333 (  2422 PWs)   bands (ev):

    -6.9599  -6.8402  -6.8309  -6.7840  -6.7620  -2.7154   1.8070   4.7048
     5.7478  10.7116  12.3792  13.4325  14.7926  17.8254  19.6401  20.2407
    21.0601  22.7222

          k = 0.5833-0.2500 0.7500 (  2415 PWs)   bands (ev):

    -6.9626  -6.8410  -6.8297  -6.7797  -6.7644  -2.3761   1.2824   4.4559
     5.7271  10.7876  12.3499  14.0757  15.1637  17.0911  19.5286  20.3329
    20.9436  23.1682

          k = 0.5000-0.1667 0.6667 (  2420 PWs)   bands (ev):

    -6.9601  -6.8423  -6.8314  -6.7773  -6.7668  -2.4617   1.4161   4.3540
     5.8871  10.9502  12.2953  14.0092  15.3383  16.8018  18.4427  20.4631
    21.8276  23.6564

          k = 0.4167-0.0833 0.5833 (  2416 PWs)   bands (ev):

    -6.9529  -6.8441  -6.8359  -6.7789  -6.7664  -2.8934   2.1019   4.4639
     6.1815  11.1550  12.3183  13.4023  14.6339  16.5997  18.9057  20.6573
    21.1755  23.2668

          k = 0.3333 0.0000 0.5000 (  2419 PWs)   bands (ev):

    -6.9422  -6.8473  -6.8428  -6.7804  -6.7657  -3.4008   2.9503   4.9027
     6.5274  11.2322  12.0387  13.0657  14.0541  16.0465  19.3279  19.9269
    20.9101  22.8104

          k =-0.1667 0.6667-0.0000 (  2415 PWs)   bands (ev):

    -6.9651  -6.8297  -6.8258  -6.7950  -6.7578  -2.9862   2.4751   5.0872
     5.4744  10.0057  10.9801  14.5081  15.8304  17.3633  19.4872  21.1464
    22.4426  23.2296

          k = 0.7500-0.2500 0.9167 (  2411 PWs)   bands (ev):

    -6.9706  -6.8295  -6.8211  -6.7936  -6.7582  -2.5149   1.7952   4.5431
     5.2736  10.3038  11.4539  14.2289  16.1347  18.0258  20.1009  20.5493
    22.1480  22.7878

          k = 0.6667-0.1667 0.8333 (  2409 PWs)   bands (ev):

    -6.9708  -6.8326  -6.8198  -6.7892  -6.7612  -2.1430   1.3209   4.0481
     5.2774  10.4398  12.5495  14.0530  15.9056  17.3102  19.7215  20.8106
    22.2498  23.1734

          k = 0.5833-0.0833 0.7500 (  2416 PWs)   bands (ev):

    -6.9670  -6.8368  -6.8219  -6.7837  -6.7655  -2.1082   1.2943   3.7751
     5.4668  10.6606  13.2523  14.1911  15.5425  16.3744  18.3267  22.0529
    22.4271  24.2725

          k = 0.5000 0.0000 0.6667 (  2428 PWs)   bands (ev):

    -6.9607  -6.8407  -6.8276  -6.7799  -6.7679  -2.4337   1.6682   3.8717
     5.7942  10.9727  13.2988  13.3731  15.5836  16.3556  17.7571  22.1112
    22.3784  23.3130

          k = 0.8333-0.1667 1.0000 (  2417 PWs)   bands (ev):

    -6.9814  -6.8183  -6.8143  -6.8010  -6.7546  -2.2438   1.4472   4.7866
     4.9736   9.8227  10.3386  15.8361  17.2660  18.3390  20.1179  20.7543
    21.7654  23.6339

          k = 0.7500-0.0833 0.9167 (  2413 PWs)   bands (ev):

    -6.9804  -6.8223  -6.8133  -6.7972  -6.7570  -1.9329   1.1253   4.2344
     4.9334  10.1040  11.1366  15.5351  16.7311  18.1952  19.7702  20.8800
    22.0800  24.2113

          k = 0.6667 0.0000 0.8333 (  2413 PWs)   bands (ev):

    -6.9746  -6.8295  -6.8155  -6.7912  -6.7614  -1.8825   1.1210   3.7756
     5.1264  10.3239  12.4914  15.1162  15.4984  17.5484  18.6875  21.9017
    22.9940  24.1022

          k =-0.1667-1.0000-0.0000 (  2420 PWs)   bands (ev):

    -6.9871  -6.8138  -6.8114  -6.8020  -6.7536  -1.8504   0.9550   4.7251
     4.7619   9.8478  10.0226  17.0670  17.2161  19.0729  19.6204  20.9621
    21.0316  23.8246

          k = 0.6667-0.3333 1.0000 (  2409 PWs)   bands (ev):

    -6.9605  -6.8387  -6.8275  -6.7870  -6.7620  -2.7563   2.0995   4.4261
     5.6156  11.2847  11.9791  12.8952  15.7432  17.0164  19.4512  20.8923
    21.8959  22.9837

          k = 0.5833-0.2500 0.9167 (  2425 PWs)   bands (ev):

    -6.9652  -6.8385  -6.8225  -6.7851  -6.7640  -2.3109   1.5272   4.0755
     5.3086  11.5284  12.3014  13.1798  16.0345  16.7724  19.0471  21.4523
    22.1057  23.3895

          k = 0.5000-0.1667 0.8333 (  2412 PWs)   bands (ev):

    -6.9667  -6.8386  -6.8208  -6.7836  -6.7652  -2.1071   1.2675   3.9741
     5.1882  11.5702  12.2213  14.0103  15.4941  16.4882  20.0880  20.4143
    21.9938  24.3328

          k = 0.6667-0.1667 1.0000 (  2421 PWs)   bands (ev):

    -6.9731  -6.8307  -6.8163  -6.7921  -6.7601  -2.1165   1.3854   4.2183
     4.8258  11.1481  11.5422  13.8973  16.5335  17.6638  19.6781  21.3639
    22.1495  23.4958

          k = 0.5833-0.0833 0.9167 (  2415 PWs)   bands (ev):

    -6.9720  -6.8338  -6.8147  -6.7888  -6.7631  -1.8855   1.1734   3.9283
     4.6825  11.4541  12.5453  13.7274  15.0742  18.0078  19.9882  20.8115
    22.5049  23.8910

          k = 0.5000 0.0000 0.8333 (  2417 PWs)   bands (ev):

    -6.9690  -6.8367  -6.8167  -6.7861  -6.7650  -1.9746   1.2656   3.8119
     4.8950  11.6766  12.9373  13.2890  15.0216  17.5396  19.1087  21.8035
    22.6431  23.6564

          k =-0.3333-1.0000 0.0000 (  2410 PWs)   bands (ev):

    -6.9775  -6.8272  -6.8127  -6.7935  -6.7597  -1.8047   1.0577   4.2862
     4.4002  11.1409  11.3114  15.2192  15.2385  19.1932  19.5210  21.2339
    21.4229  24.6783

          k =-0.5000-1.0000 0.0000 (  2400 PWs)   bands (ev):

    -6.9721  -6.8346  -6.8131  -6.7882  -6.7641  -1.7812   1.1151   4.0861
     4.2425  12.3653  12.5257  13.7661  13.8172  19.2379  19.5122  21.3641
    21.5112  24.3290

     the Fermi energy is     8.8434 ev

!    total energy              =    -144.54666664 Ry
     estimated scf accuracy    <          1.7E-11 Ry
     smearing contrib. (-TS)   =      -0.00000000 Ry
     internal energy E=F+TS    =    -144.54666664 Ry

     The total energy is F=E-TS. E is the sum of the following terms:
     one-electron contribution =     -77.58899094 Ry
     hartree contribution      =      50.95994167 Ry
     xc contribution           =     -21.45989551 Ry
     ewald contribution        =     -96.45772186 Ry

     convergence has been achieved in   8 iterations

     Writing all to output data dir out/mp-2490.save/
 
     init_run     :      0.23s CPU      0.33s WALL (       1 calls)
     electrons    :      6.92s CPU      7.83s WALL (       1 calls)

     Called by init_run:
     wfcinit      :      0.20s CPU      0.23s WALL (       1 calls)
     potinit      :      0.00s CPU      0.05s WALL (       1 calls)
     hinit0       :      0.01s CPU      0.04s WALL (       1 calls)

     Called by electrons:
     c_bands      :      6.35s CPU      7.13s WALL (       8 calls)
     sum_band     :      0.55s CPU      0.56s WALL (       8 calls)
     v_of_rho     :      0.02s CPU      0.04s WALL (       9 calls)
     mix_rho      :      0.00s CPU      0.00s WALL (       8 calls)

     Called by c_bands:
     init_us_2    :      0.03s CPU      0.04s WALL (    1224 calls)
     init_us_2:cp :      0.03s CPU      0.03s WALL (    1224 calls)
     cegterg      :      6.22s CPU      6.46s WALL (     576 calls)

     Called by *egterg:
     cdiaghg      :      1.30s CPU      1.35s WALL (    4391 calls)
     h_psi        :      4.68s CPU      4.86s WALL (    4463 calls)
     g_psi        :      0.02s CPU      0.02s WALL (    3815 calls)

     Called by h_psi:
     h_psi:calbec :      0.10s CPU      0.10s WALL (    4463 calls)
     vloc_psi     :      4.51s CPU      4.68s WALL (    4463 calls)
     add_vuspsi   :      0.04s CPU      0.05s WALL (    4463 calls)

     General routines
     calbec       :      0.09s CPU      0.10s WALL (    4463 calls)
     fft          :      0.01s CPU      0.03s WALL (      89 calls)
     ffts         :      0.00s CPU      0.00s WALL (       8 calls)
     fftw         :      4.70s CPU      4.87s WALL (  110682 calls)
 
     Parallel routines
 
     PWSCF        :      7.37s CPU      9.60s WALL

 
   This run was terminated on:  15:10:45   8Apr2024            

=------------------------------------------------------------------------------=
   JOB DONE.
=------------------------------------------------------------------------------=
