<?xml version="1.0" encoding="ISO-8859-1"?>
<modeling>
 <generator>
  <i name="program" type="string">vasp </i>
  <i name="version" type="string">5.4.4.18Apr17-6-g9f103f2a35  </i>
  <i name="subversion" type="string">(build Aug 24 2017 11:22:49) complex            parallel </i>
  <i name="platform" type="string">LinuxIFC </i>
  <i name="date" type="string">2023 12 25 </i>
  <i name="time" type="string">13:07:33 </i>
 </generator>
 <incar>
  <i type="string" name="PREC">accurate</i>
  <i type="string" name="ALGO"> Normal</i>
  <i type="int" name="NELM">   100</i>
  <i type="int" name="IBRION">     8</i>
  <i name="EDIFF">      0.00000001</i>
  <i name="SYMPREC">      0.00000001</i>
  <i name="ENCUT">    520.00000000</i>
  <i type="logical" name="LREAL"> F  </i>
  <i type="int" name="ISMEAR">     0</i>
  <i name="SIGMA">      0.01000000</i>
  <i type="logical" name="LWAVE"> F  </i>
  <v type="int" name="KPOINT_BSE">    -1     0     0     0</v>
  <i type="int" name="NELM">   100</i>
  <i type="logical" name="LPEAD"> T  </i>
  <i type="logical" name="LEPSILON"> T  </i>
 </incar>
 <structure name="primitive_cell" >
  <crystal>
   <varray name="basis" >
    <v>      -3.13971063       0.00000000       3.13971063 </v>
    <v>       0.00000000       3.13971063       3.13971063 </v>
    <v>      -3.13971063       3.13971063       0.00000000 </v>
   </varray>
   <i name="volume">     61.90117132 </i>
   <varray name="rec_basis" >
    <v>      -0.15925034      -0.15925034       0.15925034 </v>
    <v>       0.15925034       0.15925034       0.15925034 </v>
    <v>      -0.15925034       0.15925034      -0.15925034 </v>
   </varray>
  </crystal>
  <varray name="positions" >
   <v>       0.00000000       0.00000000       0.00000000 </v>
   <v>       0.49999996      -0.49999996       0.49999996 </v>
  </varray>
 </structure>
 <varray name="primitive_index" >
  <v type="int" >        1 </v>
  <v type="int" >        2 </v>
 </varray>
 <kpoints>
  <generation param="Gamma">
   <v type="int" name="divisions">      12       12       12 </v>
   <v name="usershift">      0.00000000       0.00000000       0.00000000 </v>
   <v name="genvec1">      0.08333333       0.00000000       0.00000000 </v>
   <v name="genvec2">      0.00000000       0.08333333      -0.00000000 </v>
   <v name="genvec3">     -0.00000000      -0.00000000       0.08333333 </v>
   <v name="shift">      0.00000000       0.00000000       0.00000000 </v>
  </generation>
  <varray name="kpointlist" >
   <v>       0.00000000       0.00000000       0.00000000 </v>
   <v>       0.08333333       0.00000000       0.00000000 </v>
   <v>       0.16666667      -0.00000000       0.00000000 </v>
   <v>       0.25000000       0.00000000       0.00000000 </v>
   <v>       0.33333333      -0.00000000      -0.00000000 </v>
   <v>       0.41666667       0.00000000       0.00000000 </v>
   <v>       0.50000000       0.00000000       0.00000000 </v>
   <v>       0.08333333       0.08333333       0.00000000 </v>
   <v>       0.16666667       0.08333333       0.00000000 </v>
   <v>       0.25000000       0.08333333       0.00000000 </v>
   <v>       0.33333333       0.08333333       0.00000000 </v>
   <v>       0.41666667       0.08333333       0.00000000 </v>
   <v>       0.50000000       0.08333333       0.00000000 </v>
   <v>      -0.41666667       0.08333333      -0.00000000 </v>
   <v>      -0.33333333       0.08333333       0.00000000 </v>
   <v>      -0.25000000       0.08333333       0.00000000 </v>
   <v>      -0.16666667       0.08333333      -0.00000000 </v>
   <v>      -0.08333333       0.08333333      -0.00000000 </v>
   <v>       0.16666667       0.16666667       0.00000000 </v>
   <v>       0.25000000       0.16666667       0.00000000 </v>
   <v>       0.33333333       0.16666667       0.00000000 </v>
   <v>       0.41666667       0.16666667       0.00000000 </v>
   <v>       0.50000000       0.16666667      -0.00000000 </v>
   <v>      -0.41666667       0.16666667      -0.00000000 </v>
   <v>      -0.33333333       0.16666667      -0.00000000 </v>
   <v>      -0.25000000       0.16666667      -0.00000000 </v>
   <v>      -0.16666667       0.16666667      -0.00000000 </v>
   <v>       0.25000000       0.25000000       0.00000000 </v>
   <v>       0.33333333       0.25000000       0.00000000 </v>
   <v>       0.41666667       0.25000000       0.00000000 </v>
   <v>       0.50000000       0.25000000       0.00000000 </v>
   <v>      -0.41666667       0.25000000      -0.00000000 </v>
   <v>      -0.33333333       0.25000000       0.00000000 </v>
   <v>      -0.25000000       0.25000000      -0.00000000 </v>
   <v>       0.33333333       0.33333333       0.00000000 </v>
   <v>       0.41666667       0.33333333       0.00000000 </v>
   <v>       0.50000000       0.33333333       0.00000000 </v>
   <v>      -0.41666667       0.33333333      -0.00000000 </v>
   <v>      -0.33333333       0.33333333       0.00000000 </v>
   <v>       0.41666667       0.41666667       0.00000000 </v>
   <v>       0.50000000       0.41666667       0.00000000 </v>
   <v>      -0.41666667       0.41666667      -0.00000000 </v>
   <v>       0.50000000       0.50000000       0.00000000 </v>
   <v>       0.08333333       0.00000000       0.08333333 </v>
   <v>       0.16666667       0.00000000       0.08333333 </v>
   <v>       0.25000000       0.00000000       0.08333333 </v>
   <v>       0.33333333       0.00000000       0.08333333 </v>
   <v>       0.41666667       0.00000000       0.08333333 </v>
   <v>       0.50000000       0.00000000       0.08333333 </v>
   <v>      -0.41666667       0.00000000       0.08333333 </v>
   <v>      -0.33333333      -0.00000000       0.08333333 </v>
   <v>      -0.25000000       0.00000000       0.08333333 </v>
   <v>      -0.16666667      -0.00000000       0.08333333 </v>
   <v>      -0.08333333      -0.00000000       0.08333333 </v>
   <v>       0.25000000       0.16666667       0.08333333 </v>
   <v>       0.33333333       0.16666667       0.08333333 </v>
   <v>       0.41666667       0.16666667       0.08333333 </v>
   <v>       0.50000000       0.16666667       0.08333333 </v>
   <v>      -0.41666667       0.16666667       0.08333333 </v>
   <v>       0.16666667       0.25000000       0.08333333 </v>
   <v>       0.33333333       0.25000000       0.08333333 </v>
   <v>       0.41666667       0.25000000       0.08333333 </v>
   <v>       0.50000000       0.25000000       0.08333333 </v>
   <v>      -0.41666667       0.25000000       0.08333333 </v>
   <v>      -0.33333333       0.25000000       0.08333333 </v>
   <v>      -0.25000000       0.25000000       0.08333333 </v>
   <v>      -0.16666667       0.25000000       0.08333333 </v>
   <v>       0.16666667       0.33333333       0.08333333 </v>
   <v>       0.25000000       0.33333333       0.08333333 </v>
   <v>       0.41666667       0.33333333       0.08333333 </v>
   <v>       0.50000000       0.33333333       0.08333333 </v>
   <v>      -0.41666667       0.33333333       0.08333333 </v>
   <v>      -0.33333333       0.33333333       0.08333333 </v>
   <v>      -0.25000000       0.33333333       0.08333333 </v>
   <v>       0.16666667       0.41666667       0.08333333 </v>
   <v>       0.25000000       0.41666667       0.08333333 </v>
   <v>       0.33333333       0.41666667       0.08333333 </v>
   <v>       0.50000000       0.41666667       0.08333333 </v>
   <v>      -0.41666667       0.41666667       0.08333333 </v>
   <v>      -0.33333333       0.41666667       0.08333333 </v>
   <v>       0.16666667       0.50000000       0.08333333 </v>
   <v>       0.25000000       0.50000000       0.08333333 </v>
   <v>       0.33333333       0.50000000       0.08333333 </v>
   <v>       0.41666667       0.50000000       0.08333333 </v>
   <v>      -0.41666667       0.50000000       0.08333333 </v>
   <v>       0.16666667      -0.41666667       0.08333333 </v>
   <v>       0.25000000      -0.41666667       0.08333333 </v>
   <v>       0.33333333      -0.41666667       0.08333333 </v>
   <v>       0.41666667      -0.41666667       0.08333333 </v>
   <v>       0.50000000      -0.41666667       0.08333333 </v>
   <v>       0.16666667      -0.33333333       0.08333333 </v>
   <v>       0.25000000      -0.33333333       0.08333333 </v>
   <v>       0.33333333      -0.33333333       0.08333333 </v>
   <v>       0.41666667      -0.33333333       0.08333333 </v>
   <v>       0.16666667      -0.25000000       0.08333333 </v>
   <v>       0.25000000      -0.25000000       0.08333333 </v>
   <v>       0.33333333      -0.25000000       0.08333333 </v>
   <v>       0.16666667      -0.16666667       0.08333333 </v>
   <v>       0.25000000      -0.16666667       0.08333333 </v>
   <v>       0.16666667      -0.08333333       0.08333333 </v>
   <v>       0.16666667       0.00000000       0.16666667 </v>
   <v>       0.25000000       0.00000000       0.16666667 </v>
   <v>       0.33333333       0.00000000       0.16666667 </v>
   <v>       0.41666667       0.00000000       0.16666667 </v>
   <v>       0.50000000      -0.00000000       0.16666667 </v>
   <v>      -0.41666667      -0.00000000       0.16666667 </v>
   <v>      -0.33333333      -0.00000000       0.16666667 </v>
   <v>      -0.25000000      -0.00000000       0.16666667 </v>
   <v>      -0.16666667       0.00000000       0.16666667 </v>
   <v>       0.50000000       0.33333333       0.16666667 </v>
   <v>      -0.41666667       0.33333333       0.16666667 </v>
   <v>      -0.33333333       0.33333333       0.16666667 </v>
   <v>       0.25000000       0.41666667       0.16666667 </v>
   <v>      -0.41666667       0.41666667       0.16666667 </v>
   <v>      -0.33333333       0.41666667       0.16666667 </v>
   <v>      -0.25000000       0.41666667       0.16666667 </v>
   <v>       0.25000000       0.50000000       0.16666667 </v>
   <v>       0.33333333       0.50000000       0.16666667 </v>
   <v>      -0.33333333       0.50000000       0.16666667 </v>
   <v>       0.25000000      -0.41666667       0.16666667 </v>
   <v>       0.33333333      -0.41666667       0.16666667 </v>
   <v>       0.41666667      -0.41666667       0.16666667 </v>
   <v>       0.25000000      -0.33333333       0.16666667 </v>
   <v>       0.33333333      -0.33333333       0.16666667 </v>
   <v>       0.41666667      -0.33333333       0.16666667 </v>
   <v>       0.50000000      -0.33333333       0.16666667 </v>
   <v>       0.25000000      -0.25000000       0.16666667 </v>
   <v>       0.33333333      -0.25000000       0.16666667 </v>
   <v>       0.41666667      -0.25000000       0.16666667 </v>
   <v>       0.25000000      -0.16666667       0.16666667 </v>
   <v>       0.33333333      -0.16666667       0.16666667 </v>
   <v>       0.25000000      -0.08333333       0.16666667 </v>
   <v>       0.25000000       0.00000000       0.25000000 </v>
   <v>       0.33333333       0.00000000       0.25000000 </v>
   <v>       0.41666667       0.00000000       0.25000000 </v>
   <v>       0.50000000       0.00000000       0.25000000 </v>
   <v>      -0.41666667      -0.00000000       0.25000000 </v>
   <v>      -0.33333333       0.00000000       0.25000000 </v>
   <v>      -0.25000000      -0.00000000       0.25000000 </v>
   <v>      -0.25000000       0.50000000       0.25000000 </v>
   <v>       0.33333333      -0.41666667       0.25000000 </v>
   <v>       0.33333333      -0.33333333       0.25000000 </v>
   <v>       0.41666667      -0.33333333       0.25000000 </v>
   <v>       0.33333333      -0.25000000       0.25000000 </v>
   <v>       0.41666667      -0.25000000       0.25000000 </v>
   <v>       0.50000000      -0.25000000       0.25000000 </v>
   <v>       0.33333333      -0.16666667       0.25000000 </v>
   <v>       0.41666667      -0.16666667       0.25000000 </v>
   <v>       0.33333333      -0.08333333       0.25000000 </v>
   <v>       0.33333333       0.00000000       0.33333333 </v>
   <v>       0.41666667       0.00000000       0.33333333 </v>
   <v>       0.50000000       0.00000000       0.33333333 </v>
   <v>      -0.41666667      -0.00000000       0.33333333 </v>
   <v>      -0.33333333       0.00000000       0.33333333 </v>
   <v>       0.41666667      -0.25000000       0.33333333 </v>
   <v>       0.41666667      -0.16666667       0.33333333 </v>
   <v>       0.50000000      -0.16666667       0.33333333 </v>
   <v>       0.41666667      -0.08333333       0.33333333 </v>
   <v>       0.41666667       0.00000000       0.41666667 </v>
   <v>       0.50000000       0.00000000       0.41666667 </v>
   <v>      -0.41666667       0.00000000       0.41666667 </v>
   <v>       0.50000000      -0.08333333       0.41666667 </v>
   <v>       0.50000000       0.00000000       0.50000000 </v>
  </varray>
  <varray name="weights" >
   <v>       0.00057870 </v>
   <v>       0.00462963 </v>
   <v>       0.00462963 </v>
   <v>       0.00462963 </v>
   <v>       0.00462963 </v>
   <v>       0.00462963 </v>
   <v>       0.00231481 </v>
   <v>       0.00231481 </v>
   <v>       0.00925926 </v>
   <v>       0.00925926 </v>
   <v>       0.00925926 </v>
   <v>       0.00925926 </v>
   <v>       0.00925926 </v>
   <v>       0.00925926 </v>
   <v>       0.00925926 </v>
   <v>       0.00925926 </v>
   <v>       0.00925926 </v>
   <v>       0.00462963 </v>
   <v>       0.00231481 </v>
   <v>       0.00925926 </v>
   <v>       0.00925926 </v>
   <v>       0.00925926 </v>
   <v>       0.00925926 </v>
   <v>       0.00925926 </v>
   <v>       0.00925926 </v>
   <v>       0.00925926 </v>
   <v>       0.00462963 </v>
   <v>       0.00231481 </v>
   <v>       0.00925926 </v>
   <v>       0.00925926 </v>
   <v>       0.00925926 </v>
   <v>       0.00925926 </v>
   <v>       0.00925926 </v>
   <v>       0.00462963 </v>
   <v>       0.00231481 </v>
   <v>       0.00925926 </v>
   <v>       0.00925926 </v>
   <v>       0.00925926 </v>
   <v>       0.00462963 </v>
   <v>       0.00231481 </v>
   <v>       0.00925926 </v>
   <v>       0.00462963 </v>
   <v>       0.00115741 </v>
   <v>       0.00115741 </v>
   <v>       0.00462963 </v>
   <v>       0.00462963 </v>
   <v>       0.00462963 </v>
   <v>       0.00462963 </v>
   <v>       0.00462963 </v>
   <v>       0.00462963 </v>
   <v>       0.00462963 </v>
   <v>       0.00462963 </v>
   <v>       0.00462963 </v>
   <v>       0.00231481 </v>
   <v>       0.00462963 </v>
   <v>       0.00925926 </v>
   <v>       0.00925926 </v>
   <v>       0.00925926 </v>
   <v>       0.00462963 </v>
   <v>       0.00462963 </v>
   <v>       0.00462963 </v>
   <v>       0.00925926 </v>
   <v>       0.00925926 </v>
   <v>       0.00925926 </v>
   <v>       0.00925926 </v>
   <v>       0.00925926 </v>
   <v>       0.00462963 </v>
   <v>       0.00925926 </v>
   <v>       0.00462963 </v>
   <v>       0.00462963 </v>
   <v>       0.00925926 </v>
   <v>       0.00925926 </v>
   <v>       0.00925926 </v>
   <v>       0.00462963 </v>
   <v>       0.00925926 </v>
   <v>       0.00925926 </v>
   <v>       0.00462963 </v>
   <v>       0.00462963 </v>
   <v>       0.00925926 </v>
   <v>       0.00462963 </v>
   <v>       0.00925926 </v>
   <v>       0.00925926 </v>
   <v>       0.00925926 </v>
   <v>       0.00462963 </v>
   <v>       0.00231481 </v>
   <v>       0.00925926 </v>
   <v>       0.00925926 </v>
   <v>       0.00925926 </v>
   <v>       0.00925926 </v>
   <v>       0.00231481 </v>
   <v>       0.00925926 </v>
   <v>       0.00925926 </v>
   <v>       0.00925926 </v>
   <v>       0.00462963 </v>
   <v>       0.00925926 </v>
   <v>       0.00925926 </v>
   <v>       0.00462963 </v>
   <v>       0.00925926 </v>
   <v>       0.00462963 </v>
   <v>       0.00462963 </v>
   <v>       0.00115741 </v>
   <v>       0.00462963 </v>
   <v>       0.00462963 </v>
   <v>       0.00462963 </v>
   <v>       0.00462963 </v>
   <v>       0.00462963 </v>
   <v>       0.00462963 </v>
   <v>       0.00462963 </v>
   <v>       0.00231481 </v>
   <v>       0.00462963 </v>
   <v>       0.00925926 </v>
   <v>       0.00462963 </v>
   <v>       0.00462963 </v>
   <v>       0.00462963 </v>
   <v>       0.00925926 </v>
   <v>       0.00462963 </v>
   <v>       0.00925926 </v>
   <v>       0.00462963 </v>
   <v>       0.00231481 </v>
   <v>       0.00925926 </v>
   <v>       0.00925926 </v>
   <v>       0.00462963 </v>
   <v>       0.00925926 </v>
   <v>       0.00925926 </v>
   <v>       0.00925926 </v>
   <v>       0.00231481 </v>
   <v>       0.00925926 </v>
   <v>       0.00925926 </v>
   <v>       0.00462963 </v>
   <v>       0.00925926 </v>
   <v>       0.00462963 </v>
   <v>       0.00462963 </v>
   <v>       0.00115741 </v>
   <v>       0.00462963 </v>
   <v>       0.00462963 </v>
   <v>       0.00462963 </v>
   <v>       0.00462963 </v>
   <v>       0.00462963 </v>
   <v>       0.00231481 </v>
   <v>       0.00115741 </v>
   <v>       0.00462963 </v>
   <v>       0.00925926 </v>
   <v>       0.00462963 </v>
   <v>       0.00925926 </v>
   <v>       0.00925926 </v>
   <v>       0.00231481 </v>
   <v>       0.00925926 </v>
   <v>       0.00462963 </v>
   <v>       0.00462963 </v>
   <v>       0.00115741 </v>
   <v>       0.00462963 </v>
   <v>       0.00462963 </v>
   <v>       0.00462963 </v>
   <v>       0.00231481 </v>
   <v>       0.00462963 </v>
   <v>       0.00925926 </v>
   <v>       0.00231481 </v>
   <v>       0.00462963 </v>
   <v>       0.00115741 </v>
   <v>       0.00462963 </v>
   <v>       0.00231481 </v>
   <v>       0.00231481 </v>
   <v>       0.00057870 </v>
  </varray>
 </kpoints>
 <parameters>
  <separator name="general" >
   <i type="string" name="SYSTEM">unknown system</i>
   <i type="logical" name="LCOMPAT"> F  </i>
  </separator>
  <separator name="electronic" >
   <i type="string" name="PREC">accura</i>
   <i name="ENMAX">    520.00000000</i>
   <i name="ENAUG">    446.84200000</i>
   <i name="EDIFF">      0.00000001</i>
   <i type="int" name="IALGO">    38</i>
   <i type="int" name="IWAVPR">    11</i>
   <i type="int" name="NBANDS">    16</i>
   <i name="NELECT">     16.00000000</i>
   <i type="int" name="TURBO">     0</i>
   <i type="int" name="IRESTART">     0</i>
   <i type="int" name="NREBOOT">     0</i>
   <i type="int" name="NMIN">     0</i>
   <i name="EREF">      0.00000000</i>
   <separator name="electronic smearing" >
    <i type="int" name="ISMEAR">     0</i>
    <i name="SIGMA">      0.01000000</i>
    <i name="KSPACING">      0.50000000</i>
    <i type="logical" name="KGAMMA"> T  </i>
   </separator>
   <separator name="electronic projectors" >
    <i type="logical" name="LREAL"> F  </i>
    <v name="ROPT">      0.00000000      0.00000000</v>
    <i type="int" name="LMAXPAW">  -100</i>
    <i type="int" name="LMAXMIX">     2</i>
    <i type="logical" name="NLSPLINE"> F  </i>
   </separator>
   <separator name="electronic startup" >
    <i type="int" name="ISTART">     0</i>
    <i type="int" name="ICHARG">     2</i>
    <i type="int" name="INIWAV">     1</i>
   </separator>
   <separator name="electronic spin" >
    <i type="int" name="ISPIN">     1</i>
    <i type="logical" name="LNONCOLLINEAR"> F  </i>
    <v name="MAGMOM">      1.00000000      1.00000000</v>
    <i name="NUPDOWN">     -1.00000000</i>
    <i type="logical" name="LSORBIT"> F  </i>
    <v name="SAXIS">      0.00000000      0.00000000      1.00000000</v>
    <i type="logical" name="LSPIRAL"> F  </i>
    <v name="QSPIRAL">      0.00000000      0.00000000      0.00000000</v>
    <i type="logical" name="LZEROZ"> F  </i>
   </separator>
   <separator name="electronic exchange-correlation" >
    <i type="logical" name="LASPH"> F  </i>
    <i type="logical" name="LMETAGGA"> F  </i>
   </separator>
   <separator name="electronic convergence" >
    <i type="int" name="NELM">   100</i>
    <i type="int" name="NELMDL">    -5</i>
    <i type="int" name="NELMIN">     2</i>
    <i name="ENINI">    520.00000000</i>
    <separator name="electronic convergence detail" >
     <i type="logical" name="LDIAG"> T  </i>
     <i type="logical" name="LSUBROT"> F  </i>
     <i name="WEIMIN">      0.00100000</i>
     <i name="EBREAK">      0.00000000</i>
     <i name="DEPER">      0.30000000</i>
     <i type="int" name="NRMM">     4</i>
     <i name="TIME">      0.40000000</i>
    </separator>
   </separator>
   <separator name="electronic mixer" >
    <i name="AMIX">      0.40000000</i>
    <i name="BMIX">      1.00000000</i>
    <i name="AMIN">      0.10000000</i>
    <i name="AMIX_MAG">      1.60000000</i>
    <i name="BMIX_MAG">      1.00000000</i>
    <separator name="electronic mixer details" >
     <i type="int" name="IMIX">     4</i>
     <i type="logical" name="MIXFIRST"> F  </i>
     <i type="int" name="MAXMIX">   -45</i>
     <i name="WC">    100.00000000</i>
     <i type="int" name="INIMIX">     1</i>
     <i type="int" name="MIXPRE">     1</i>
     <i type="int" name="MREMOVE">     5</i>
    </separator>
   </separator>
   <separator name="electronic dipolcorrection" >
    <i type="logical" name="LDIPOL"> F  </i>
    <i type="logical" name="LMONO"> F  </i>
    <i type="int" name="IDIPOL">     0</i>
    <i name="EPSILON">      1.00000000</i>
    <v name="DIPOL">   -100.00000000   -100.00000000   -100.00000000</v>
    <i name="EFIELD">      0.00000000</i>
   </separator>
  </separator>
  <separator name="grids" >
   <i type="int" name="NGX">    36</i>
   <i type="int" name="NGY">    36</i>
   <i type="int" name="NGZ">    36</i>
   <i type="int" name="NGXF">    72</i>
   <i type="int" name="NGYF">    72</i>
   <i type="int" name="NGZF">    72</i>
   <i type="logical" name="ADDGRID"> F  </i>
  </separator>
  <separator name="ionic" >
   <i type="int" name="NSW">     1</i>
   <i type="int" name="IBRION">     8</i>
   <i type="int" name="MDALGO">     0</i>
   <i type="int" name="ISIF">     2</i>
   <i name="PSTRESS">      0.00000000</i>
   <i name="EDIFFG">      0.00000010</i>
   <i type="int" name="NFREE">     0</i>
   <i name="POTIM">      0.50000000</i>
   <i name="SMASS">     -3.00000000</i>
   <i name="SCALEE">      1.00000000</i>
  </separator>
  <separator name="ionic md" >
   <i name="TEBEG">      0.00010000</i>
   <i name="TEEND">      0.00010000</i>
   <i type="int" name="NBLOCK">     1</i>
   <i type="int" name="KBLOCK">     1</i>
   <i type="int" name="NPACO">   256</i>
   <i name="APACO">     16.00000000</i>
  </separator>
  <separator name="symmetry" >
   <i type="int" name="ISYM">     2</i>
   <i name="SYMPREC">      0.00000001</i>
  </separator>
  <separator name="dos" >
   <i type="int" name="LORBIT">     0</i>
   <v name="RWIGS">     -1.00000000     -1.00000000</v>
   <i type="int" name="NEDOS">   301</i>
   <i name="EMIN">     10.00000000</i>
   <i name="EMAX">    -10.00000000</i>
   <i name="EFERMI">      0.00000000</i>
  </separator>
  <separator name="writing" >
   <i type="int" name="NWRITE">     2</i>
   <i type="logical" name="LWAVE"> F  </i>
   <i type="logical" name="LDOWNSAMPLE"> F  </i>
   <i type="logical" name="LCHARG"> T  </i>
   <i type="logical" name="LPARD"> F  </i>
   <i type="logical" name="LVTOT"> F  </i>
   <i type="logical" name="LVHAR"> F  </i>
   <i type="logical" name="LELF"> F  </i>
   <i type="logical" name="LOPTICS"> F  </i>
   <v name="STM">      0.00000000      0.00000000      0.00000000      0.00000000      0.00000000      0.00000000      0.00000000</v>
  </separator>
  <separator name="performance" >
   <i type="int" name="NPAR">     8</i>
   <i type="int" name="NSIM">     4</i>
   <i type="int" name="NBLK">    -1</i>
   <i type="logical" name="LPLANE"> T  </i>
   <i type="logical" name="LSCALAPACK"> T  </i>
   <i type="logical" name="LSCAAWARE"> F  </i>
   <i type="logical" name="LSCALU"> F  </i>
   <i type="logical" name="LASYNC"> F  </i>
   <i type="logical" name="LORBITALREAL"> F  </i>
  </separator>
  <separator name="miscellaneous" >
   <i type="int" name="IDIOT">     3</i>
   <i type="int" name="ISPECIAL">     0</i>
   <i type="logical" name="LMUSIC"> F  </i>
   <v name="POMASS">     87.62000000     78.96000000</v>
   <v name="DARWINR">      0.00000000      0.00000000</v>
   <v name="DARWINV">      1.00000000      1.00000000</v>
   <i type="logical" name="LCORR"> T  </i>
  </separator>
  <i type="logical" name="GGA_COMPAT"> T  </i>
  <i type="logical" name="LBERRY"> F  </i>
  <i type="int" name="ICORELEVEL">     0</i>
  <i type="logical" name="LDAU"> F  </i>
  <i type="int" name="I_CONSTRAINED_M">     0</i>
  <separator name="electronic exchange-correlation" >
   <i type="string" name="GGA">--</i>
   <i type="int" name="VOSKOWN">     0</i>
   <i type="logical" name="LHFCALC"> F  </i>
   <i type="string" name="PRECFOCK"></i>
   <i type="logical" name="LSYMGRAD"> F  </i>
   <i type="logical" name="LHFONE"> F  </i>
   <i type="logical" name="LRHFCALC"> F  </i>
   <i type="logical" name="LTHOMAS"> F  </i>
   <i type="logical" name="LMODELHF"> F  </i>
   <i name="ENCUT4O">     -1.00000000</i>
   <i type="int" name="EXXOEP">     0</i>
   <i type="int" name="FOURORBIT">     0</i>
   <i name="AEXX">      0.00000000</i>
   <i name="HFALPHA">      0.00000000</i>
   <i name="MCALPHA">      0.00000000</i>
   <i name="ALDAX">      1.00000000</i>
   <i name="AGGAX">      1.00000000</i>
   <i name="ALDAC">      1.00000000</i>
   <i name="AGGAC">      1.00000000</i>
   <i type="int" name="NKREDX">     1</i>
   <i type="int" name="NKREDY">     1</i>
   <i type="int" name="NKREDZ">     1</i>
   <i type="logical" name="SHIFTRED"> F  </i>
   <i type="logical" name="ODDONLY"> F  </i>
   <i type="logical" name="EVENONLY"> F  </i>
   <i type="int" name="LMAXFOCK">     0</i>
   <i type="int" name="NMAXFOCKAE">     0</i>
   <i type="logical" name="LFOCKAEDFT"> F  </i>
   <i name="HFSCREEN">      0.00000000</i>
   <i name="HFSCREENC">      0.00000000</i>
   <i type="int" name="NBANDSGWLOW">     0</i>
  </separator>
  <separator name="vdW DFT" >
   <i type="logical" name="LUSE_VDW"> F  </i>
   <i name="Zab_VDW">     -0.84910000</i>
   <i name="PARAM1">      0.12340000</i>
   <i name="PARAM2">      1.00000000</i>
   <i name="PARAM3">      0.00000000</i>
  </separator>
  <separator name="model GW" >
   <i type="int" name="MODEL_GW">     0</i>
   <i name="MODEL_EPS0">     18.57035140</i>
   <i name="MODEL_ALPHA">      1.00000000</i>
  </separator>
  <separator name="linear response parameters" >
   <i type="logical" name="LEPSILON"> T  </i>
   <i type="logical" name="LRPA"> F  </i>
   <i type="logical" name="LNABLA"> F  </i>
   <i type="logical" name="LVEL"> F  </i>
   <i type="int" name="KINTER">     0</i>
   <i name="CSHIFT">      0.10000000</i>
   <i name="OMEGAMAX">     -1.00000000</i>
   <i name="DEG_THRESHOLD">      0.00200000</i>
   <i name="RTIME">     -0.10000000</i>
   <i name="WPLASMAI">      0.00000000</i>
   <v name="DFIELD">      0.00000000      0.00000000      0.00000000</v>
   <v name="WPLASMA">      0.00000000      0.00000000      0.00000000      0.00000000      0.00000000      0.00000000      0.00000000      0.00000000      0.00000000</v>
  </separator>
  <separator name="orbital magnetization" >
   <i type="logical" name="NUCIND"> F  </i>
   <v name="MAGPOS">      0.00000000      0.00000000      0.00000000</v>
   <i type="logical" name="LNICSALL"> T  </i>
   <i type="logical" name="ORBITALMAG"> F  </i>
   <i type="logical" name="LMAGBLOCH"> F  </i>
   <i type="logical" name="LCHIMAG"> F  </i>
   <i type="logical" name="LGAUGE"> T  </i>
   <i type="int" name="MAGATOM">     0</i>
   <v name="MAGDIPOL">      0.00000000      0.00000000      0.00000000</v>
   <v name="AVECCONST">      0.00000000      0.00000000      0.00000000</v>
  </separator>
  <separator name="response functions" >
   <i type="logical" name="LADDER"> F  </i>
   <i type="logical" name="LRPAFORCE"> F  </i>
   <i type="logical" name="LFXC"> F  </i>
   <i type="logical" name="LHARTREE"> T  </i>
   <i type="int" name="IBSE">     0</i>
   <v type="int" name="KPOINT">    -1     0     0     0</v>
   <i type="logical" name="LTCTE"> F  </i>
   <i type="logical" name="LTETE"> F  </i>
   <i type="logical" name="LTRIPLET"> F  </i>
   <i type="logical" name="LFXCEPS"> F  </i>
   <i type="logical" name="LFXHEG"> F  </i>
   <i type="int" name="NATURALO">     2</i>
   <i type="logical" name="L2ORDER"> F  </i>
   <i type="logical" name="LMP2LT"> F  </i>
   <i type="logical" name="LUSEW"> F  </i>
   <i name="ENCUTGW">     -2.00000000</i>
   <i name="ENCUTGWSOFT">     -2.00000000</i>
   <i name="ENCUTLF">     -1.00000000</i>
   <i type="int" name="LMAXMP2">    -1</i>
   <i name="SCISSOR">      0.00000000</i>
   <i type="int" name="NOMEGA">     0</i>
   <i type="int" name="NOMEGAR">     0</i>
   <i type="int" name="NBANDSGW">    -1</i>
   <i type="int" name="NBANDSO">    -1</i>
   <i type="int" name="NBANDSV">    -1</i>
   <i type="int" name="NELM">   100</i>
   <i type="int" name="NELMHF">     1</i>
   <i type="int" name="DIM">     3</i>
   <i type="int" name="ANTIRES">     0</i>
   <i name="OMEGAMAX">    -30.00000000</i>
   <i name="OMEGAMIN">    -30.00000000</i>
   <i name="OMEGATL">   -200.00000000</i>
   <i type="int" name="OMEGAGRID">   140</i>
   <i name="CSHIFT">     -0.10000000</i>
   <i type="logical" name="SELFENERGY"> F  </i>
   <i type="logical" name="LSPECTRAL"> F  </i>
   <i type="logical" name="LSPECTRALGW"> F  </i>
   <i type="logical" name="LSINGLES"> F  </i>
   <i type="logical" name="LFERMIGW"> F  </i>
   <i type="logical" name="ODDONLYGW"> F  </i>
   <i type="logical" name="EVENONLYGW"> F  </i>
   <i type="int" name="NKREDLFX">     1</i>
   <i type="int" name="NKREDLFY">     1</i>
   <i type="int" name="NKREDLFZ">     1</i>
   <i type="int" name="MAXMEM">  2800</i>
   <i type="int" name="TELESCOPE">     0</i>
   <i type="int" name="TAUPAR">     1</i>
   <i type="int" name="OMEGAPAR">    -1</i>
   <i name="LAMBDA">      1.00000000</i>
  </separator>
  <separator name="External order field" >
   <i name="OFIELD_KAPPA">      0.00000000</i>
   <v name="OFIELD_K">      0.00000000      0.00000000      0.00000000</v>
   <i name="OFIELD_Q6_NEAR">      0.00000000</i>
   <i name="OFIELD_Q6_FAR">      0.00000000</i>
   <i name="OFIELD_A">      0.00000000</i>
  </separator>
 </parameters>
 <atominfo>
  <atoms>       2 </atoms>
  <types>       2 </types>
  <array name="atoms" >
   <dimension dim="1">ion</dimension>
   <field type="string">element</field>
   <field type="int">atomtype</field>
   <set>
    <rc><c>Sr</c><c>   1</c></rc>
    <rc><c>Se</c><c>   2</c></rc>
   </set>
  </array>
  <array name="atomtypes" >
   <dimension dim="1">type</dimension>
   <field type="int">atomspertype</field>
   <field type="string">element</field>
   <field>mass</field>
   <field>valence</field>
   <field type="string">pseudopotential</field>
   <set>
    <rc><c>   1</c><c>Sr</c><c>     87.62000000</c><c>     10.00000000</c><c>  PAW_PBE Sr_sv 07Sep2000               </c></rc>
    <rc><c>   1</c><c>Se</c><c>     78.96000000</c><c>      6.00000000</c><c>  PAW_PBE Se 06Sep2000                  </c></rc>
   </set>
  </array>
 </atominfo>
 <structure name="initialpos" >
  <crystal>
   <varray name="basis" >
    <v>      -3.13971063       0.00000000       3.13971063 </v>
    <v>       0.00000000       3.13971063       3.13971063 </v>
    <v>      -3.13971063       3.13971063       0.00000000 </v>
   </varray>
   <i name="volume">     61.90117132 </i>
   <varray name="rec_basis" >
    <v>      -0.15925034      -0.15925034       0.15925034 </v>
    <v>       0.15925034       0.15925034       0.15925034 </v>
    <v>      -0.15925034       0.15925034      -0.15925034 </v>
   </varray>
  </crystal>
  <varray name="positions" >
   <v>       0.00000000       0.00000000       0.00000000 </v>
   <v>       0.49999996       0.50000004       0.49999996 </v>
  </varray>
 </structure>
 <calculation>
  <scstep>
   <time name="dav">    1.58    1.60</time>
   <time name="total">    1.62    1.64</time>
   <energy>
    <i name="alphaZ">     63.47966599 </i>
    <i name="ewald">   -864.88000965 </i>
    <i name="hartreedc">   -197.40099612 </i>
    <i name="XCdc">     34.48135458 </i>
    <i name="pawpsdc">    841.47443169 </i>
    <i name="pawaedc">   -813.71919832 </i>
    <i name="eentropy">     -0.00001293 </i>
    <i name="bandstr">    -97.64307363 </i>
    <i name="atom">   1100.15873574 </i>
    <i name="e_fr_energy">     65.95089734 </i>
    <i name="e_wo_entrp">     65.95091027 </i>
    <i name="e_0_energy">     65.95090380 </i>
   </energy>
  </scstep>
  <scstep>
   <time name="dav">    1.99    2.00</time>
   <time name="total">    1.99    2.00</time>
   <energy>
    <i name="e_fr_energy">     -5.59707149 </i>
    <i name="e_wo_entrp">     -5.59707149 </i>
    <i name="e_0_energy">     -5.59707149 </i>
   </energy>
  </scstep>
  <scstep>
   <time name="dav">    2.03    2.04</time>
   <time name="total">    2.03    2.04</time>
   <energy>
    <i name="e_fr_energy">     -9.38416677 </i>
    <i name="e_wo_entrp">     -9.38416677 </i>
    <i name="e_0_energy">     -9.38416677 </i>
   </energy>
  </scstep>
  <scstep>
   <time name="dav">    1.95    1.96</time>
   <time name="total">    1.95    1.96</time>
   <energy>
    <i name="e_fr_energy">     -9.50763591 </i>
    <i name="e_wo_entrp">     -9.50763591 </i>
    <i name="e_0_energy">     -9.50763591 </i>
   </energy>
  </scstep>
  <scstep>
   <time name="dav">    2.01    2.02</time>
   <time name="total">    2.12    2.13</time>
   <energy>
    <i name="e_fr_energy">     -9.50896483 </i>
    <i name="e_wo_entrp">     -9.50896483 </i>
    <i name="e_0_energy">     -9.50896483 </i>
   </energy>
  </scstep>
  <scstep>
   <time name="dav">    1.84    1.85</time>
   <time name="total">    1.99    2.00</time>
   <energy>
    <i name="e_fr_energy">     -9.27016002 </i>
    <i name="e_wo_entrp">     -9.27016002 </i>
    <i name="e_0_energy">     -9.27016002 </i>
   </energy>
  </scstep>
  <scstep>
   <time name="dav">    1.94    1.94</time>
   <time name="total">    2.07    2.08</time>
   <energy>
    <i name="e_fr_energy">     -9.27236769 </i>
    <i name="e_wo_entrp">     -9.27236769 </i>
    <i name="e_0_energy">     -9.27236769 </i>
   </energy>
  </scstep>
  <scstep>
   <time name="dav">    1.68    1.69</time>
   <time name="total">    1.81    1.81</time>
   <energy>
    <i name="e_fr_energy">     -9.27131946 </i>
    <i name="e_wo_entrp">     -9.27131946 </i>
    <i name="e_0_energy">     -9.27131946 </i>
   </energy>
  </scstep>
  <scstep>
   <time name="dav">    1.88    1.88</time>
   <time name="total">    2.01    2.02</time>
   <energy>
    <i name="e_fr_energy">     -9.27123002 </i>
    <i name="e_wo_entrp">     -9.27123002 </i>
    <i name="e_0_energy">     -9.27123002 </i>
   </energy>
  </scstep>
  <scstep>
   <time name="dav">    1.74    1.75</time>
   <time name="total">    1.87    1.88</time>
   <energy>
    <i name="e_fr_energy">     -9.27163144 </i>
    <i name="e_wo_entrp">     -9.27163144 </i>
    <i name="e_0_energy">     -9.27163144 </i>
   </energy>
  </scstep>
  <scstep>
   <time name="dav">    2.01    2.02</time>
   <time name="total">    2.14    2.15</time>
   <energy>
    <i name="e_fr_energy">     -9.27165901 </i>
    <i name="e_wo_entrp">     -9.27165901 </i>
    <i name="e_0_energy">     -9.27165901 </i>
   </energy>
  </scstep>
  <scstep>
   <time name="dav">    1.90    1.92</time>
   <time name="total">    2.03    2.05</time>
   <energy>
    <i name="e_fr_energy">     -9.27166114 </i>
    <i name="e_wo_entrp">     -9.27166114 </i>
    <i name="e_0_energy">     -9.27166114 </i>
   </energy>
  </scstep>
  <scstep>
   <time name="dav">    1.90    1.91</time>
   <time name="total">    2.03    2.04</time>
   <energy>
    <i name="e_fr_energy">     -9.27166130 </i>
    <i name="e_wo_entrp">     -9.27166130 </i>
    <i name="e_0_energy">     -9.27166130 </i>
   </energy>
  </scstep>
  <scstep>
   <time name="dav">    1.89    1.90</time>
   <time name="total">    2.02    2.03</time>
   <energy>
    <i name="e_fr_energy">     -9.27166129 </i>
    <i name="e_wo_entrp">     -9.27166129 </i>
    <i name="e_0_energy">     -9.27166129 </i>
   </energy>
  </scstep>
  <scstep>
   <time name="dav">    1.85    1.85</time>
   <time name="total">    1.97    1.98</time>
   <energy>
    <i name="e_fr_energy">     -9.27166127 </i>
    <i name="e_wo_entrp">     -9.27166127 </i>
    <i name="e_0_energy">     -9.27166127 </i>
   </energy>
  </scstep>
  <scstep>
   <time name="dav">    1.36    1.37</time>
   <time name="total">    1.49    1.50</time>
   <energy>
    <i name="e_fr_energy">     -9.27166129 </i>
    <i name="e_wo_entrp">     -9.27166129 </i>
    <i name="e_0_energy">     -9.27166129 </i>
   </energy>
  </scstep>
  <scstep>
   <time name="dav">    1.22    1.23</time>
   <time name="total">    1.25    1.26</time>
   <energy>
    <i name="alphaZ">     63.47966599 </i>
    <i name="ewald">   -864.88000965 </i>
    <i name="hartreedc">   -196.53822442 </i>
    <i name="XCdc">     34.88717885 </i>
    <i name="pawpsdc">   1553.86281700 </i>
    <i name="pawaedc">  -1531.46278224 </i>
    <i name="eentropy">     -0.00000000 </i>
    <i name="bandstr">   -168.77904256 </i>
    <i name="atom">   1100.15873574 </i>
    <i name="e_fr_energy">     -9.27166130 </i>
    <i name="e_wo_entrp">     -9.27166130 </i>
    <i name="e_0_energy">     -9.27166130 </i>
   </energy>
  </scstep>
  <structure>
   <crystal>
    <varray name="basis" >
     <v>      -3.13971063       0.00000000       3.13971063 </v>
     <v>       0.00000000       3.13971063       3.13971063 </v>
     <v>      -3.13971063       3.13971063       0.00000000 </v>
    </varray>
    <i name="volume">     61.90117132 </i>
    <varray name="rec_basis" >
     <v>      -0.15925034      -0.15925034       0.15925034 </v>
     <v>       0.15925034       0.15925034       0.15925034 </v>
     <v>      -0.15925034       0.15925034      -0.15925034 </v>
    </varray>
   </crystal>
   <varray name="positions" >
    <v>       0.00000000       0.00000000       0.00000000 </v>
    <v>       0.49999996       0.50000004       0.49999996 </v>
   </varray>
  </structure>
  <varray name="forces" >
   <v>       0.00000063      -0.00000000      -0.00000000 </v>
   <v>      -0.00000063       0.00000000       0.00000000 </v>
  </varray>
  <varray name="stress" >
   <v>       4.70655061       0.00000000       0.00000000 </v>
   <v>       0.00000000       4.70655020       0.00000000 </v>
   <v>       0.00000000       0.00000000       4.70655020 </v>
  </varray>
  <energy>
   <i name="e_fr_energy">     -9.27166130 </i>
   <i name="e_wo_entrp">     -9.27166130 </i>
   <i name="e_0_energy">     -0.00000000 </i>
  </energy>
  <scstep>
   <time name="total">    1.79    1.79</time>
   <energy>
    <i name="e_fr_energy">     -0.74549876 </i>
    <i name="e_wo_entrp">     -0.74549876 </i>
    <i name="e_0_energy">     -0.74549876 </i>
   </energy>
  </scstep>
  <scstep>
   <time name="total">    1.78    1.78</time>
   <energy>
    <i name="e_fr_energy">     -0.78586373 </i>
    <i name="e_wo_entrp">     -0.78586373 </i>
    <i name="e_0_energy">     -0.78586373 </i>
   </energy>
  </scstep>
  <scstep>
   <time name="total">    1.78    1.78</time>
   <energy>
    <i name="e_fr_energy">     -0.79114650 </i>
    <i name="e_wo_entrp">     -0.79114650 </i>
    <i name="e_0_energy">     -0.79114650 </i>
   </energy>
  </scstep>
  <scstep>
   <time name="total">    1.77    1.77</time>
   <energy>
    <i name="e_fr_energy">     -0.79194229 </i>
    <i name="e_wo_entrp">     -0.79194229 </i>
    <i name="e_0_energy">     -0.79194229 </i>
   </energy>
  </scstep>
  <scstep>
   <time name="total">    1.75    1.75</time>
   <energy>
    <i name="e_fr_energy">     -0.79200149 </i>
    <i name="e_wo_entrp">     -0.79200149 </i>
    <i name="e_0_energy">     -0.79200149 </i>
   </energy>
  </scstep>
  <scstep>
   <time name="total">    1.70    1.70</time>
   <energy>
    <i name="e_fr_energy">     -0.79200891 </i>
    <i name="e_wo_entrp">     -0.79200891 </i>
    <i name="e_0_energy">     -0.79200891 </i>
   </energy>
  </scstep>
  <scstep>
   <time name="total">    1.69    1.69</time>
   <energy>
    <i name="e_fr_energy">     -0.79200963 </i>
    <i name="e_wo_entrp">     -0.79200963 </i>
    <i name="e_0_energy">     -0.79200963 </i>
   </energy>
  </scstep>
  <scstep>
   <time name="total">    1.70    1.70</time>
   <energy>
    <i name="e_fr_energy">     -0.79200974 </i>
    <i name="e_wo_entrp">     -0.79200974 </i>
    <i name="e_0_energy">     -0.79200974 </i>
   </energy>
  </scstep>
  <scstep>
   <time name="total">    1.71    1.71</time>
   <energy>
    <i name="e_fr_energy">     -0.79200976 </i>
    <i name="e_wo_entrp">     -0.79200976 </i>
    <i name="e_0_energy">     -0.79200976 </i>
   </energy>
  </scstep>
  <scstep>
   <time name="total">    1.67    1.67</time>
   <energy>
    <i name="e_fr_energy">     -0.79200976 </i>
    <i name="e_wo_entrp">     -0.79200976 </i>
    <i name="e_0_energy">     -0.79200976 </i>
   </energy>
  </scstep>
  <scstep>
   <time name="total">    1.91    1.91</time>
   <energy>
    <i name="e_fr_energy">     -0.81249993 </i>
    <i name="e_wo_entrp">     -0.81249993 </i>
    <i name="e_0_energy">     -0.81249993 </i>
   </energy>
  </scstep>
  <scstep>
   <time name="total">    1.80    1.80</time>
   <energy>
    <i name="e_fr_energy">     -0.85418101 </i>
    <i name="e_wo_entrp">     -0.85418101 </i>
    <i name="e_0_energy">     -0.85418101 </i>
   </energy>
  </scstep>
  <scstep>
   <time name="total">    1.78    1.78</time>
   <energy>
    <i name="e_fr_energy">     -0.85929421 </i>
    <i name="e_wo_entrp">     -0.85929421 </i>
    <i name="e_0_energy">     -0.85929421 </i>
   </energy>
  </scstep>
  <scstep>
   <time name="total">    1.79    1.79</time>
   <energy>
    <i name="e_fr_energy">     -0.86007587 </i>
    <i name="e_wo_entrp">     -0.86007587 </i>
    <i name="e_0_energy">     -0.86007587 </i>
   </energy>
  </scstep>
  <scstep>
   <time name="total">    1.78    1.78</time>
   <energy>
    <i name="e_fr_energy">     -0.86013339 </i>
    <i name="e_wo_entrp">     -0.86013339 </i>
    <i name="e_0_energy">     -0.86013339 </i>
   </energy>
  </scstep>
  <scstep>
   <time name="total">    1.76    1.76</time>
   <energy>
    <i name="e_fr_energy">     -0.86014024 </i>
    <i name="e_wo_entrp">     -0.86014024 </i>
    <i name="e_0_energy">     -0.86014024 </i>
   </energy>
  </scstep>
  <scstep>
   <time name="total">    1.76    1.76</time>
   <energy>
    <i name="e_fr_energy">     -0.86014088 </i>
    <i name="e_wo_entrp">     -0.86014088 </i>
    <i name="e_0_energy">     -0.86014088 </i>
   </energy>
  </scstep>
  <scstep>
   <time name="total">    1.75    1.75</time>
   <energy>
    <i name="e_fr_energy">     -0.86014097 </i>
    <i name="e_wo_entrp">     -0.86014097 </i>
    <i name="e_0_energy">     -0.86014097 </i>
   </energy>
  </scstep>
  <scstep>
   <time name="total">    1.75    1.75</time>
   <energy>
    <i name="e_fr_energy">     -0.86014098 </i>
    <i name="e_wo_entrp">     -0.86014098 </i>
    <i name="e_0_energy">     -0.86014098 </i>
   </energy>
  </scstep>
  <scstep>
   <time name="total">    1.76    1.76</time>
   <energy>
    <i name="e_fr_energy">     -0.67822549 </i>
    <i name="e_wo_entrp">     -0.67822549 </i>
    <i name="e_0_energy">     -0.67822549 </i>
   </energy>
  </scstep>
  <scstep>
   <time name="total">    1.75    1.75</time>
   <energy>
    <i name="e_fr_energy">     -0.71773461 </i>
    <i name="e_wo_entrp">     -0.71773461 </i>
    <i name="e_0_energy">     -0.71773461 </i>
   </energy>
  </scstep>
  <scstep>
   <time name="total">    1.76    1.76</time>
   <energy>
    <i name="e_fr_energy">     -0.72308080 </i>
    <i name="e_wo_entrp">     -0.72308080 </i>
    <i name="e_0_energy">     -0.72308080 </i>
   </energy>
  </scstep>
  <scstep>
   <time name="total">    1.75    1.75</time>
   <energy>
    <i name="e_fr_energy">     -0.72388880 </i>
    <i name="e_wo_entrp">     -0.72388880 </i>
    <i name="e_0_energy">     -0.72388880 </i>
   </energy>
  </scstep>
  <scstep>
   <time name="total">    1.73    1.73</time>
   <energy>
    <i name="e_fr_energy">     -0.72394958 </i>
    <i name="e_wo_entrp">     -0.72394958 </i>
    <i name="e_0_energy">     -0.72394958 </i>
   </energy>
  </scstep>
  <scstep>
   <time name="total">    1.68    1.68</time>
   <energy>
    <i name="e_fr_energy">     -0.72395760 </i>
    <i name="e_wo_entrp">     -0.72395760 </i>
    <i name="e_0_energy">     -0.72395760 </i>
   </energy>
  </scstep>
  <scstep>
   <time name="total">    1.67    1.67</time>
   <energy>
    <i name="e_fr_energy">     -0.72395841 </i>
    <i name="e_wo_entrp">     -0.72395841 </i>
    <i name="e_0_energy">     -0.72395841 </i>
   </energy>
  </scstep>
  <scstep>
   <time name="total">    1.67    1.67</time>
   <energy>
    <i name="e_fr_energy">     -0.72395854 </i>
    <i name="e_wo_entrp">     -0.72395854 </i>
    <i name="e_0_energy">     -0.72395854 </i>
   </energy>
  </scstep>
  <scstep>
   <time name="total">    1.67    1.67</time>
   <energy>
    <i name="e_fr_energy">     -0.72395856 </i>
    <i name="e_wo_entrp">     -0.72395856 </i>
    <i name="e_0_energy">     -0.72395856 </i>
   </energy>
  </scstep>
  <scstep>
   <time name="total">    1.65    1.65</time>
   <energy>
    <i name="e_fr_energy">     -0.72395856 </i>
    <i name="e_wo_entrp">     -0.72395856 </i>
    <i name="e_0_energy">     -0.72395856 </i>
   </energy>
  </scstep>
  <varray name="epsilon_rpa" >
   <v>       5.63049630      -0.00000000       0.00000000 </v>
   <v>      -0.00000000       5.63073032      -0.00000000 </v>
   <v>       0.00000000      -0.00000000       5.63073032 </v>
  </varray>
  <kpoints>
   <generation param="Gamma">
    <v type="int" name="divisions">      12       12       12 </v>
    <v name="usershift">      0.00000000       0.00000000       0.00000000 </v>
    <v name="genvec1">      0.08333333       0.00000000       0.00000000 </v>
    <v name="genvec2">      0.00000000       0.08333333      -0.00000000 </v>
    <v name="genvec3">     -0.00000000      -0.00000000       0.08333333 </v>
    <v name="shift">      0.00000000       0.00000000       0.00000000 </v>
   </generation>
   <varray name="kpointlist" >
    <v>       0.00000000       0.00000000       0.00000000 </v>
    <v>       0.08333333       0.00000000       0.00000000 </v>
    <v>       0.16666667      -0.00000000       0.00000000 </v>
    <v>       0.25000000       0.00000000       0.00000000 </v>
    <v>       0.33333333      -0.00000000      -0.00000000 </v>
    <v>       0.41666667       0.00000000       0.00000000 </v>
    <v>       0.50000000       0.00000000       0.00000000 </v>
    <v>       0.08333333       0.08333333       0.00000000 </v>
    <v>       0.16666667       0.08333333       0.00000000 </v>
    <v>       0.25000000       0.08333333       0.00000000 </v>
    <v>       0.33333333       0.08333333       0.00000000 </v>
    <v>       0.41666667       0.08333333       0.00000000 </v>
    <v>       0.50000000       0.08333333       0.00000000 </v>
    <v>      -0.41666667       0.08333333      -0.00000000 </v>
    <v>      -0.33333333       0.08333333       0.00000000 </v>
    <v>      -0.25000000       0.08333333       0.00000000 </v>
    <v>      -0.16666667       0.08333333      -0.00000000 </v>
    <v>      -0.08333333       0.08333333      -0.00000000 </v>
    <v>       0.16666667       0.16666667       0.00000000 </v>
    <v>       0.25000000       0.16666667       0.00000000 </v>
    <v>       0.33333333       0.16666667       0.00000000 </v>
    <v>       0.41666667       0.16666667       0.00000000 </v>
    <v>       0.50000000       0.16666667      -0.00000000 </v>
    <v>      -0.41666667       0.16666667      -0.00000000 </v>
    <v>      -0.33333333       0.16666667      -0.00000000 </v>
    <v>      -0.25000000       0.16666667      -0.00000000 </v>
    <v>      -0.16666667       0.16666667      -0.00000000 </v>
    <v>       0.25000000       0.25000000       0.00000000 </v>
    <v>       0.33333333       0.25000000       0.00000000 </v>
    <v>       0.41666667       0.25000000       0.00000000 </v>
    <v>       0.50000000       0.25000000       0.00000000 </v>
    <v>      -0.41666667       0.25000000      -0.00000000 </v>
    <v>      -0.33333333       0.25000000       0.00000000 </v>
    <v>      -0.25000000       0.25000000      -0.00000000 </v>
    <v>       0.33333333       0.33333333       0.00000000 </v>
    <v>       0.41666667       0.33333333       0.00000000 </v>
    <v>       0.50000000       0.33333333       0.00000000 </v>
    <v>      -0.41666667       0.33333333      -0.00000000 </v>
    <v>      -0.33333333       0.33333333       0.00000000 </v>
    <v>       0.41666667       0.41666667       0.00000000 </v>
    <v>       0.50000000       0.41666667       0.00000000 </v>
    <v>      -0.41666667       0.41666667      -0.00000000 </v>
    <v>       0.50000000       0.50000000       0.00000000 </v>
    <v>       0.08333333       0.00000000       0.08333333 </v>
    <v>       0.16666667       0.00000000       0.08333333 </v>
    <v>       0.25000000       0.00000000       0.08333333 </v>
    <v>       0.33333333       0.00000000       0.08333333 </v>
    <v>       0.41666667       0.00000000       0.08333333 </v>
    <v>       0.50000000       0.00000000       0.08333333 </v>
    <v>      -0.41666667       0.00000000       0.08333333 </v>
    <v>      -0.33333333      -0.00000000       0.08333333 </v>
    <v>      -0.25000000       0.00000000       0.08333333 </v>
    <v>      -0.16666667      -0.00000000       0.08333333 </v>
    <v>      -0.08333333      -0.00000000       0.08333333 </v>
    <v>       0.25000000       0.16666667       0.08333333 </v>
    <v>       0.33333333       0.16666667       0.08333333 </v>
    <v>       0.41666667       0.16666667       0.08333333 </v>
    <v>       0.50000000       0.16666667       0.08333333 </v>
    <v>      -0.41666667       0.16666667       0.08333333 </v>
    <v>       0.16666667       0.25000000       0.08333333 </v>
    <v>       0.33333333       0.25000000       0.08333333 </v>
    <v>       0.41666667       0.25000000       0.08333333 </v>
    <v>       0.50000000       0.25000000       0.08333333 </v>
    <v>      -0.41666667       0.25000000       0.08333333 </v>
    <v>      -0.33333333       0.25000000       0.08333333 </v>
    <v>      -0.25000000       0.25000000       0.08333333 </v>
    <v>      -0.16666667       0.25000000       0.08333333 </v>
    <v>       0.16666667       0.33333333       0.08333333 </v>
    <v>       0.25000000       0.33333333       0.08333333 </v>
    <v>       0.41666667       0.33333333       0.08333333 </v>
    <v>       0.50000000       0.33333333       0.08333333 </v>
    <v>      -0.41666667       0.33333333       0.08333333 </v>
    <v>      -0.33333333       0.33333333       0.08333333 </v>
    <v>      -0.25000000       0.33333333       0.08333333 </v>
    <v>       0.16666667       0.41666667       0.08333333 </v>
    <v>       0.25000000       0.41666667       0.08333333 </v>
    <v>       0.33333333       0.41666667       0.08333333 </v>
    <v>       0.50000000       0.41666667       0.08333333 </v>
    <v>      -0.41666667       0.41666667       0.08333333 </v>
    <v>      -0.33333333       0.41666667       0.08333333 </v>
    <v>       0.16666667       0.50000000       0.08333333 </v>
    <v>       0.25000000       0.50000000       0.08333333 </v>
    <v>       0.33333333       0.50000000       0.08333333 </v>
    <v>       0.41666667       0.50000000       0.08333333 </v>
    <v>      -0.41666667       0.50000000       0.08333333 </v>
    <v>       0.16666667      -0.41666667       0.08333333 </v>
    <v>       0.25000000      -0.41666667       0.08333333 </v>
    <v>       0.33333333      -0.41666667       0.08333333 </v>
    <v>       0.41666667      -0.41666667       0.08333333 </v>
    <v>       0.50000000      -0.41666667       0.08333333 </v>
    <v>       0.16666667      -0.33333333       0.08333333 </v>
    <v>       0.25000000      -0.33333333       0.08333333 </v>
    <v>       0.33333333      -0.33333333       0.08333333 </v>
    <v>       0.41666667      -0.33333333       0.08333333 </v>
    <v>       0.16666667      -0.25000000       0.08333333 </v>
    <v>       0.25000000      -0.25000000       0.08333333 </v>
    <v>       0.33333333      -0.25000000       0.08333333 </v>
    <v>       0.16666667      -0.16666667       0.08333333 </v>
    <v>       0.25000000      -0.16666667       0.08333333 </v>
    <v>       0.16666667      -0.08333333       0.08333333 </v>
    <v>       0.16666667       0.00000000       0.16666667 </v>
    <v>       0.25000000       0.00000000       0.16666667 </v>
    <v>       0.33333333       0.00000000       0.16666667 </v>
    <v>       0.41666667       0.00000000       0.16666667 </v>
    <v>       0.50000000      -0.00000000       0.16666667 </v>
    <v>      -0.41666667      -0.00000000       0.16666667 </v>
    <v>      -0.33333333      -0.00000000       0.16666667 </v>
    <v>      -0.25000000      -0.00000000       0.16666667 </v>
    <v>      -0.16666667       0.00000000       0.16666667 </v>
    <v>       0.50000000       0.33333333       0.16666667 </v>
    <v>      -0.41666667       0.33333333       0.16666667 </v>
    <v>      -0.33333333       0.33333333       0.16666667 </v>
    <v>       0.25000000       0.41666667       0.16666667 </v>
    <v>      -0.41666667       0.41666667       0.16666667 </v>
    <v>      -0.33333333       0.41666667       0.16666667 </v>
    <v>      -0.25000000       0.41666667       0.16666667 </v>
    <v>       0.25000000       0.50000000       0.16666667 </v>
    <v>       0.33333333       0.50000000       0.16666667 </v>
    <v>      -0.33333333       0.50000000       0.16666667 </v>
    <v>       0.25000000      -0.41666667       0.16666667 </v>
    <v>       0.33333333      -0.41666667       0.16666667 </v>
    <v>       0.41666667      -0.41666667       0.16666667 </v>
    <v>       0.25000000      -0.33333333       0.16666667 </v>
    <v>       0.33333333      -0.33333333       0.16666667 </v>
    <v>       0.41666667      -0.33333333       0.16666667 </v>
    <v>       0.50000000      -0.33333333       0.16666667 </v>
    <v>       0.25000000      -0.25000000       0.16666667 </v>
    <v>       0.33333333      -0.25000000       0.16666667 </v>
    <v>       0.41666667      -0.25000000       0.16666667 </v>
    <v>       0.25000000      -0.16666667       0.16666667 </v>
    <v>       0.33333333      -0.16666667       0.16666667 </v>
    <v>       0.25000000      -0.08333333       0.16666667 </v>
    <v>       0.25000000       0.00000000       0.25000000 </v>
    <v>       0.33333333       0.00000000       0.25000000 </v>
    <v>       0.41666667       0.00000000       0.25000000 </v>
    <v>       0.50000000       0.00000000       0.25000000 </v>
    <v>      -0.41666667      -0.00000000       0.25000000 </v>
    <v>      -0.33333333       0.00000000       0.25000000 </v>
    <v>      -0.25000000      -0.00000000       0.25000000 </v>
    <v>      -0.25000000       0.50000000       0.25000000 </v>
    <v>       0.33333333      -0.41666667       0.25000000 </v>
    <v>       0.33333333      -0.33333333       0.25000000 </v>
    <v>       0.41666667      -0.33333333       0.25000000 </v>
    <v>       0.33333333      -0.25000000       0.25000000 </v>
    <v>       0.41666667      -0.25000000       0.25000000 </v>
    <v>       0.50000000      -0.25000000       0.25000000 </v>
    <v>       0.33333333      -0.16666667       0.25000000 </v>
    <v>       0.41666667      -0.16666667       0.25000000 </v>
    <v>       0.33333333      -0.08333333       0.25000000 </v>
    <v>       0.33333333       0.00000000       0.33333333 </v>
    <v>       0.41666667       0.00000000       0.33333333 </v>
    <v>       0.50000000       0.00000000       0.33333333 </v>
    <v>      -0.41666667      -0.00000000       0.33333333 </v>
    <v>      -0.33333333       0.00000000       0.33333333 </v>
    <v>       0.41666667      -0.25000000       0.33333333 </v>
    <v>       0.41666667      -0.16666667       0.33333333 </v>
    <v>       0.50000000      -0.16666667       0.33333333 </v>
    <v>       0.41666667      -0.08333333       0.33333333 </v>
    <v>       0.41666667       0.00000000       0.41666667 </v>
    <v>       0.50000000       0.00000000       0.41666667 </v>
    <v>      -0.41666667       0.00000000       0.41666667 </v>
    <v>       0.50000000      -0.08333333       0.41666667 </v>
    <v>       0.50000000       0.00000000       0.50000000 </v>
   </varray>
   <varray name="weights" >
    <v>       0.00057870 </v>
    <v>       0.00462963 </v>
    <v>       0.00462963 </v>
    <v>       0.00462963 </v>
    <v>       0.00462963 </v>
    <v>       0.00462963 </v>
    <v>       0.00231481 </v>
    <v>       0.00231481 </v>
    <v>       0.00925926 </v>
    <v>       0.00925926 </v>
    <v>       0.00925926 </v>
    <v>       0.00925926 </v>
    <v>       0.00925926 </v>
    <v>       0.00925926 </v>
    <v>       0.00925926 </v>
    <v>       0.00925926 </v>
    <v>       0.00925926 </v>
    <v>       0.00462963 </v>
    <v>       0.00231481 </v>
    <v>       0.00925926 </v>
    <v>       0.00925926 </v>
    <v>       0.00925926 </v>
    <v>       0.00925926 </v>
    <v>       0.00925926 </v>
    <v>       0.00925926 </v>
    <v>       0.00925926 </v>
    <v>       0.00462963 </v>
    <v>       0.00231481 </v>
    <v>       0.00925926 </v>
    <v>       0.00925926 </v>
    <v>       0.00925926 </v>
    <v>       0.00925926 </v>
    <v>       0.00925926 </v>
    <v>       0.00462963 </v>
    <v>       0.00231481 </v>
    <v>       0.00925926 </v>
    <v>       0.00925926 </v>
    <v>       0.00925926 </v>
    <v>       0.00462963 </v>
    <v>       0.00231481 </v>
    <v>       0.00925926 </v>
    <v>       0.00462963 </v>
    <v>       0.00115741 </v>
    <v>       0.00115741 </v>
    <v>       0.00462963 </v>
    <v>       0.00462963 </v>
    <v>       0.00462963 </v>
    <v>       0.00462963 </v>
    <v>       0.00462963 </v>
    <v>       0.00462963 </v>
    <v>       0.00462963 </v>
    <v>       0.00462963 </v>
    <v>       0.00462963 </v>
    <v>       0.00231481 </v>
    <v>       0.00462963 </v>
    <v>       0.00925926 </v>
    <v>       0.00925926 </v>
    <v>       0.00925926 </v>
    <v>       0.00462963 </v>
    <v>       0.00462963 </v>
    <v>       0.00462963 </v>
    <v>       0.00925926 </v>
    <v>       0.00925926 </v>
    <v>       0.00925926 </v>
    <v>       0.00925926 </v>
    <v>       0.00925926 </v>
    <v>       0.00462963 </v>
    <v>       0.00925926 </v>
    <v>       0.00462963 </v>
    <v>       0.00462963 </v>
    <v>       0.00925926 </v>
    <v>       0.00925926 </v>
    <v>       0.00925926 </v>
    <v>       0.00462963 </v>
    <v>       0.00925926 </v>
    <v>       0.00925926 </v>
    <v>       0.00462963 </v>
    <v>       0.00462963 </v>
    <v>       0.00925926 </v>
    <v>       0.00462963 </v>
    <v>       0.00925926 </v>
    <v>       0.00925926 </v>
    <v>       0.00925926 </v>
    <v>       0.00462963 </v>
    <v>       0.00231481 </v>
    <v>       0.00925926 </v>
    <v>       0.00925926 </v>
    <v>       0.00925926 </v>
    <v>       0.00925926 </v>
    <v>       0.00231481 </v>
    <v>       0.00925926 </v>
    <v>       0.00925926 </v>
    <v>       0.00925926 </v>
    <v>       0.00462963 </v>
    <v>       0.00925926 </v>
    <v>       0.00925926 </v>
    <v>       0.00462963 </v>
    <v>       0.00925926 </v>
    <v>       0.00462963 </v>
    <v>       0.00462963 </v>
    <v>       0.00115741 </v>
    <v>       0.00462963 </v>
    <v>       0.00462963 </v>
    <v>       0.00462963 </v>
    <v>       0.00462963 </v>
    <v>       0.00462963 </v>
    <v>       0.00462963 </v>
    <v>       0.00462963 </v>
    <v>       0.00231481 </v>
    <v>       0.00462963 </v>
    <v>       0.00925926 </v>
    <v>       0.00462963 </v>
    <v>       0.00462963 </v>
    <v>       0.00462963 </v>
    <v>       0.00925926 </v>
    <v>       0.00462963 </v>
    <v>       0.00925926 </v>
    <v>       0.00462963 </v>
    <v>       0.00231481 </v>
    <v>       0.00925926 </v>
    <v>       0.00925926 </v>
    <v>       0.00462963 </v>
    <v>       0.00925926 </v>
    <v>       0.00925926 </v>
    <v>       0.00925926 </v>
    <v>       0.00231481 </v>
    <v>       0.00925926 </v>
    <v>       0.00925926 </v>
    <v>       0.00462963 </v>
    <v>       0.00925926 </v>
    <v>       0.00462963 </v>
    <v>       0.00462963 </v>
    <v>       0.00115741 </v>
    <v>       0.00462963 </v>
    <v>       0.00462963 </v>
    <v>       0.00462963 </v>
    <v>       0.00462963 </v>
    <v>       0.00462963 </v>
    <v>       0.00231481 </v>
    <v>       0.00115741 </v>
    <v>       0.00462963 </v>
    <v>       0.00925926 </v>
    <v>       0.00462963 </v>
    <v>       0.00925926 </v>
    <v>       0.00925926 </v>
    <v>       0.00231481 </v>
    <v>       0.00925926 </v>
    <v>       0.00462963 </v>
    <v>       0.00462963 </v>
    <v>       0.00115741 </v>
    <v>       0.00462963 </v>
    <v>       0.00462963 </v>
    <v>       0.00462963 </v>
    <v>       0.00231481 </v>
    <v>       0.00462963 </v>
    <v>       0.00925926 </v>
    <v>       0.00231481 </v>
    <v>       0.00462963 </v>
    <v>       0.00115741 </v>
    <v>       0.00462963 </v>
    <v>       0.00231481 </v>
    <v>       0.00231481 </v>
    <v>       0.00057870 </v>
   </varray>
  </kpoints>
  <scstep>
   <time name="total">    1.75    1.75</time>
   <energy>
    <i name="e_fr_energy">     -0.74549876 </i>
    <i name="e_wo_entrp">     -0.74549876 </i>
    <i name="e_0_energy">     -0.74549876 </i>
   </energy>
  </scstep>
  <scstep>
   <time name="total">    1.98    1.98</time>
   <energy>
    <i name="e_fr_energy">     -0.78586373 </i>
    <i name="e_wo_entrp">     -0.78586373 </i>
    <i name="e_0_energy">     -0.78586373 </i>
   </energy>
  </scstep>
  <scstep>
   <time name="total">    2.30    2.30</time>
   <energy>
    <i name="e_fr_energy">     -0.74081251 </i>
    <i name="e_wo_entrp">     -0.74081251 </i>
    <i name="e_0_energy">     -0.74081251 </i>
   </energy>
  </scstep>
  <scstep>
   <time name="total">    2.73    2.73</time>
   <energy>
    <i name="e_fr_energy">     -0.78174003 </i>
    <i name="e_wo_entrp">     -0.78174003 </i>
    <i name="e_0_energy">     -0.78174003 </i>
   </energy>
  </scstep>
  <scstep>
   <time name="total">    2.63    2.63</time>
   <energy>
    <i name="e_fr_energy">     -0.81266370 </i>
    <i name="e_wo_entrp">     -0.81266370 </i>
    <i name="e_0_energy">     -0.81266370 </i>
   </energy>
  </scstep>
  <scstep>
   <time name="total">    2.97    2.97</time>
   <energy>
    <i name="e_fr_energy">     -0.81479882 </i>
    <i name="e_wo_entrp">     -0.81479882 </i>
    <i name="e_0_energy">     -0.81479882 </i>
   </energy>
  </scstep>
  <scstep>
   <time name="total">    2.94    2.94</time>
   <energy>
    <i name="e_fr_energy">     -0.81608814 </i>
    <i name="e_wo_entrp">     -0.81608814 </i>
    <i name="e_0_energy">     -0.81608814 </i>
   </energy>
  </scstep>
  <scstep>
   <time name="total">    2.97    2.97</time>
   <energy>
    <i name="e_fr_energy">     -0.81648816 </i>
    <i name="e_wo_entrp">     -0.81648816 </i>
    <i name="e_0_energy">     -0.81648816 </i>
   </energy>
  </scstep>
  <scstep>
   <time name="total">    3.04    3.04</time>
   <energy>
    <i name="e_fr_energy">     -0.81649467 </i>
    <i name="e_wo_entrp">     -0.81649467 </i>
    <i name="e_0_energy">     -0.81649467 </i>
   </energy>
  </scstep>
  <scstep>
   <time name="total">    3.04    3.04</time>
   <energy>
    <i name="e_fr_energy">     -0.81651871 </i>
    <i name="e_wo_entrp">     -0.81651871 </i>
    <i name="e_0_energy">     -0.81651871 </i>
   </energy>
  </scstep>
  <scstep>
   <time name="total">    3.04    3.04</time>
   <energy>
    <i name="e_fr_energy">     -0.81651731 </i>
    <i name="e_wo_entrp">     -0.81651731 </i>
    <i name="e_0_energy">     -0.81651731 </i>
   </energy>
  </scstep>
  <scstep>
   <time name="total">    3.00    3.00</time>
   <energy>
    <i name="e_fr_energy">     -0.81651703 </i>
    <i name="e_wo_entrp">     -0.81651703 </i>
    <i name="e_0_energy">     -0.81651703 </i>
   </energy>
  </scstep>
  <scstep>
   <time name="total">    3.04    3.04</time>
   <energy>
    <i name="e_fr_energy">     -0.81651645 </i>
    <i name="e_wo_entrp">     -0.81651645 </i>
    <i name="e_0_energy">     -0.81651645 </i>
   </energy>
  </scstep>
  <scstep>
   <time name="total">    2.82    2.82</time>
   <energy>
    <i name="e_fr_energy">     -0.81651639 </i>
    <i name="e_wo_entrp">     -0.81651639 </i>
    <i name="e_0_energy">     -0.81651639 </i>
   </energy>
  </scstep>
  <kpoints>
   <generation param="Gamma">
    <v type="int" name="divisions">      12       12       12 </v>
    <v name="usershift">      0.00000000       0.00000000       0.00000000 </v>
    <v name="genvec1">      0.08333333       0.00000000       0.00000000 </v>
    <v name="genvec2">      0.00000000       0.08333333      -0.00000000 </v>
    <v name="genvec3">     -0.00000000      -0.00000000       0.08333333 </v>
    <v name="shift">      0.00000000       0.00000000       0.00000000 </v>
   </generation>
   <varray name="kpointlist" >
    <v>       0.00000000       0.00000000       0.00000000 </v>
    <v>       0.08333333       0.00000000       0.00000000 </v>
    <v>       0.16666667      -0.00000000       0.00000000 </v>
    <v>       0.25000000       0.00000000       0.00000000 </v>
    <v>       0.33333333      -0.00000000      -0.00000000 </v>
    <v>       0.41666667       0.00000000       0.00000000 </v>
    <v>       0.50000000       0.00000000       0.00000000 </v>
    <v>       0.08333333       0.08333333       0.00000000 </v>
    <v>       0.16666667       0.08333333       0.00000000 </v>
    <v>       0.25000000       0.08333333       0.00000000 </v>
    <v>       0.33333333       0.08333333       0.00000000 </v>
    <v>       0.41666667       0.08333333       0.00000000 </v>
    <v>       0.50000000       0.08333333       0.00000000 </v>
    <v>      -0.41666667       0.08333333      -0.00000000 </v>
    <v>      -0.33333333       0.08333333       0.00000000 </v>
    <v>      -0.25000000       0.08333333       0.00000000 </v>
    <v>      -0.16666667       0.08333333      -0.00000000 </v>
    <v>      -0.08333333       0.08333333      -0.00000000 </v>
    <v>       0.16666667       0.16666667       0.00000000 </v>
    <v>       0.25000000       0.16666667       0.00000000 </v>
    <v>       0.33333333       0.16666667       0.00000000 </v>
    <v>       0.41666667       0.16666667       0.00000000 </v>
    <v>       0.50000000       0.16666667      -0.00000000 </v>
    <v>      -0.41666667       0.16666667      -0.00000000 </v>
    <v>      -0.33333333       0.16666667      -0.00000000 </v>
    <v>      -0.25000000       0.16666667      -0.00000000 </v>
    <v>      -0.16666667       0.16666667      -0.00000000 </v>
    <v>       0.25000000       0.25000000       0.00000000 </v>
    <v>       0.33333333       0.25000000       0.00000000 </v>
    <v>       0.41666667       0.25000000       0.00000000 </v>
    <v>       0.50000000       0.25000000       0.00000000 </v>
    <v>      -0.41666667       0.25000000      -0.00000000 </v>
    <v>      -0.33333333       0.25000000       0.00000000 </v>
    <v>      -0.25000000       0.25000000      -0.00000000 </v>
    <v>       0.33333333       0.33333333       0.00000000 </v>
    <v>       0.41666667       0.33333333       0.00000000 </v>
    <v>       0.50000000       0.33333333       0.00000000 </v>
    <v>      -0.41666667       0.33333333      -0.00000000 </v>
    <v>      -0.33333333       0.33333333       0.00000000 </v>
    <v>       0.41666667       0.41666667       0.00000000 </v>
    <v>       0.50000000       0.41666667       0.00000000 </v>
    <v>      -0.41666667       0.41666667      -0.00000000 </v>
    <v>       0.50000000       0.50000000       0.00000000 </v>
    <v>      -0.00000000      -0.00000000       0.08333333 </v>
    <v>       0.08333333       0.00000000       0.08333333 </v>
    <v>       0.16666667       0.00000000       0.08333333 </v>
    <v>       0.25000000       0.00000000       0.08333333 </v>
    <v>       0.33333333       0.00000000       0.08333333 </v>
    <v>       0.41666667       0.00000000       0.08333333 </v>
    <v>       0.50000000       0.00000000       0.08333333 </v>
    <v>      -0.41666667       0.00000000       0.08333333 </v>
    <v>      -0.33333333      -0.00000000       0.08333333 </v>
    <v>      -0.25000000       0.00000000       0.08333333 </v>
    <v>      -0.16666667      -0.00000000       0.08333333 </v>
    <v>      -0.08333333      -0.00000000       0.08333333 </v>
    <v>       0.00000000       0.08333333       0.08333333 </v>
    <v>       0.16666667       0.08333333       0.08333333 </v>
    <v>       0.25000000       0.08333333       0.08333333 </v>
    <v>       0.33333333       0.08333333       0.08333333 </v>
    <v>       0.41666667       0.08333333       0.08333333 </v>
    <v>       0.50000000       0.08333333       0.08333333 </v>
    <v>      -0.41666667       0.08333333       0.08333333 </v>
    <v>      -0.33333333       0.08333333       0.08333333 </v>
    <v>      -0.25000000       0.08333333       0.08333333 </v>
    <v>      -0.16666667       0.08333333       0.08333333 </v>
    <v>      -0.08333333       0.08333333       0.08333333 </v>
    <v>       0.16666667       0.16666667       0.08333333 </v>
    <v>       0.25000000       0.16666667       0.08333333 </v>
    <v>       0.33333333       0.16666667       0.08333333 </v>
    <v>       0.41666667       0.16666667       0.08333333 </v>
    <v>       0.50000000       0.16666667       0.08333333 </v>
    <v>      -0.41666667       0.16666667       0.08333333 </v>
    <v>      -0.33333333       0.16666667       0.08333333 </v>
    <v>      -0.25000000       0.16666667       0.08333333 </v>
    <v>      -0.16666667       0.16666667       0.08333333 </v>
    <v>      -0.08333333       0.16666667       0.08333333 </v>
    <v>       0.16666667       0.25000000       0.08333333 </v>
    <v>       0.25000000       0.25000000       0.08333333 </v>
    <v>       0.33333333       0.25000000       0.08333333 </v>
    <v>       0.41666667       0.25000000       0.08333333 </v>
    <v>       0.50000000       0.25000000       0.08333333 </v>
    <v>      -0.41666667       0.25000000       0.08333333 </v>
    <v>      -0.33333333       0.25000000       0.08333333 </v>
    <v>      -0.25000000       0.25000000       0.08333333 </v>
    <v>      -0.16666667       0.25000000       0.08333333 </v>
    <v>       0.16666667       0.33333333       0.08333333 </v>
    <v>       0.25000000       0.33333333       0.08333333 </v>
    <v>       0.33333333       0.33333333       0.08333333 </v>
    <v>       0.41666667       0.33333333       0.08333333 </v>
    <v>       0.50000000       0.33333333       0.08333333 </v>
    <v>      -0.41666667       0.33333333       0.08333333 </v>
    <v>      -0.33333333       0.33333333       0.08333333 </v>
    <v>      -0.25000000       0.33333333       0.08333333 </v>
    <v>       0.16666667       0.41666667       0.08333333 </v>
    <v>       0.25000000       0.41666667       0.08333333 </v>
    <v>       0.33333333       0.41666667       0.08333333 </v>
    <v>       0.41666667       0.41666667       0.08333333 </v>
    <v>       0.50000000       0.41666667       0.08333333 </v>
    <v>      -0.41666667       0.41666667       0.08333333 </v>
    <v>      -0.33333333       0.41666667       0.08333333 </v>
    <v>       0.16666667       0.50000000       0.08333333 </v>
    <v>       0.25000000       0.50000000       0.08333333 </v>
    <v>       0.33333333       0.50000000       0.08333333 </v>
    <v>       0.41666667       0.50000000       0.08333333 </v>
    <v>       0.50000000       0.50000000       0.08333333 </v>
    <v>      -0.41666667       0.50000000       0.08333333 </v>
    <v>       0.16666667      -0.41666667       0.08333333 </v>
    <v>       0.25000000      -0.41666667       0.08333333 </v>
    <v>       0.33333333      -0.41666667       0.08333333 </v>
    <v>       0.41666667      -0.41666667       0.08333333 </v>
    <v>       0.50000000      -0.41666667       0.08333333 </v>
    <v>       0.16666667      -0.33333333       0.08333333 </v>
    <v>       0.25000000      -0.33333333       0.08333333 </v>
    <v>       0.33333333      -0.33333333       0.08333333 </v>
    <v>       0.41666667      -0.33333333       0.08333333 </v>
    <v>       0.16666667      -0.25000000       0.08333333 </v>
    <v>       0.25000000      -0.25000000       0.08333333 </v>
    <v>       0.33333333      -0.25000000       0.08333333 </v>
    <v>       0.16666667      -0.16666667       0.08333333 </v>
    <v>       0.25000000      -0.16666667       0.08333333 </v>
    <v>       0.16666667      -0.08333333       0.08333333 </v>
    <v>       0.00000000       0.00000000       0.16666667 </v>
    <v>       0.08333333      -0.00000000       0.16666667 </v>
    <v>       0.16666667       0.00000000       0.16666667 </v>
    <v>       0.25000000       0.00000000       0.16666667 </v>
    <v>       0.33333333       0.00000000       0.16666667 </v>
    <v>       0.41666667       0.00000000       0.16666667 </v>
    <v>       0.50000000      -0.00000000       0.16666667 </v>
    <v>      -0.41666667      -0.00000000       0.16666667 </v>
    <v>      -0.33333333      -0.00000000       0.16666667 </v>
    <v>      -0.25000000      -0.00000000       0.16666667 </v>
    <v>      -0.16666667       0.00000000       0.16666667 </v>
    <v>      -0.08333333      -0.00000000       0.16666667 </v>
    <v>       0.00000000       0.08333333       0.16666667 </v>
    <v>       0.08333333       0.08333333       0.16666667 </v>
    <v>       0.25000000       0.08333333       0.16666667 </v>
    <v>       0.33333333       0.08333333       0.16666667 </v>
    <v>       0.41666667       0.08333333       0.16666667 </v>
    <v>       0.50000000       0.08333333       0.16666667 </v>
    <v>      -0.41666667       0.08333333       0.16666667 </v>
    <v>      -0.33333333       0.08333333       0.16666667 </v>
    <v>      -0.25000000       0.08333333       0.16666667 </v>
    <v>      -0.16666667       0.08333333       0.16666667 </v>
    <v>      -0.08333333       0.08333333       0.16666667 </v>
    <v>       0.00000000       0.16666667       0.16666667 </v>
    <v>       0.25000000       0.16666667       0.16666667 </v>
    <v>       0.33333333       0.16666667       0.16666667 </v>
    <v>       0.41666667       0.16666667       0.16666667 </v>
    <v>       0.50000000       0.16666667       0.16666667 </v>
    <v>      -0.41666667       0.16666667       0.16666667 </v>
    <v>      -0.33333333       0.16666667       0.16666667 </v>
    <v>      -0.25000000       0.16666667       0.16666667 </v>
    <v>      -0.16666667       0.16666667       0.16666667 </v>
    <v>      -0.08333333       0.16666667       0.16666667 </v>
    <v>       0.25000000       0.25000000       0.16666667 </v>
    <v>       0.33333333       0.25000000       0.16666667 </v>
    <v>       0.41666667       0.25000000       0.16666667 </v>
    <v>       0.50000000       0.25000000       0.16666667 </v>
    <v>      -0.41666667       0.25000000       0.16666667 </v>
    <v>      -0.33333333       0.25000000       0.16666667 </v>
    <v>      -0.25000000       0.25000000       0.16666667 </v>
    <v>      -0.16666667       0.25000000       0.16666667 </v>
    <v>      -0.08333333       0.25000000       0.16666667 </v>
    <v>       0.25000000       0.33333333       0.16666667 </v>
    <v>       0.33333333       0.33333333       0.16666667 </v>
    <v>       0.41666667       0.33333333       0.16666667 </v>
    <v>       0.50000000       0.33333333       0.16666667 </v>
    <v>      -0.41666667       0.33333333       0.16666667 </v>
    <v>      -0.33333333       0.33333333       0.16666667 </v>
    <v>      -0.25000000       0.33333333       0.16666667 </v>
    <v>      -0.16666667       0.33333333       0.16666667 </v>
    <v>       0.25000000       0.41666667       0.16666667 </v>
    <v>       0.33333333       0.41666667       0.16666667 </v>
    <v>       0.41666667       0.41666667       0.16666667 </v>
    <v>       0.50000000       0.41666667       0.16666667 </v>
    <v>      -0.41666667       0.41666667       0.16666667 </v>
    <v>      -0.33333333       0.41666667       0.16666667 </v>
    <v>      -0.25000000       0.41666667       0.16666667 </v>
    <v>       0.25000000       0.50000000       0.16666667 </v>
    <v>       0.33333333       0.50000000       0.16666667 </v>
    <v>       0.41666667       0.50000000       0.16666667 </v>
    <v>       0.50000000       0.50000000       0.16666667 </v>
    <v>      -0.41666667       0.50000000       0.16666667 </v>
    <v>      -0.33333333       0.50000000       0.16666667 </v>
    <v>       0.25000000      -0.41666667       0.16666667 </v>
    <v>       0.33333333      -0.41666667       0.16666667 </v>
    <v>       0.41666667      -0.41666667       0.16666667 </v>
    <v>       0.50000000      -0.41666667       0.16666667 </v>
    <v>      -0.41666667      -0.41666667       0.16666667 </v>
    <v>       0.25000000      -0.33333333       0.16666667 </v>
    <v>       0.33333333      -0.33333333       0.16666667 </v>
    <v>       0.41666667      -0.33333333       0.16666667 </v>
    <v>       0.50000000      -0.33333333       0.16666667 </v>
    <v>       0.25000000      -0.25000000       0.16666667 </v>
    <v>       0.33333333      -0.25000000       0.16666667 </v>
    <v>       0.41666667      -0.25000000       0.16666667 </v>
    <v>       0.25000000      -0.16666667       0.16666667 </v>
    <v>       0.33333333      -0.16666667       0.16666667 </v>
    <v>       0.25000000      -0.08333333       0.16666667 </v>
    <v>      -0.00000000      -0.00000000       0.25000000 </v>
    <v>       0.08333333      -0.00000000       0.25000000 </v>
    <v>       0.16666667       0.00000000       0.25000000 </v>
    <v>       0.25000000       0.00000000       0.25000000 </v>
    <v>       0.33333333       0.00000000       0.25000000 </v>
    <v>       0.41666667       0.00000000       0.25000000 </v>
    <v>       0.50000000       0.00000000       0.25000000 </v>
    <v>      -0.41666667      -0.00000000       0.25000000 </v>
    <v>      -0.33333333       0.00000000       0.25000000 </v>
    <v>      -0.25000000      -0.00000000       0.25000000 </v>
    <v>      -0.16666667      -0.00000000       0.25000000 </v>
    <v>      -0.08333333       0.00000000       0.25000000 </v>
    <v>      -0.00000000       0.08333333       0.25000000 </v>
    <v>       0.08333333       0.08333333       0.25000000 </v>
    <v>       0.16666667       0.08333333       0.25000000 </v>
    <v>       0.33333333       0.08333333       0.25000000 </v>
    <v>       0.41666667       0.08333333       0.25000000 </v>
    <v>       0.50000000       0.08333333       0.25000000 </v>
    <v>      -0.41666667       0.08333333       0.25000000 </v>
    <v>      -0.33333333       0.08333333       0.25000000 </v>
    <v>      -0.25000000       0.08333333       0.25000000 </v>
    <v>      -0.16666667       0.08333333       0.25000000 </v>
    <v>      -0.08333333       0.08333333       0.25000000 </v>
    <v>       0.00000000       0.16666667       0.25000000 </v>
    <v>       0.08333333       0.16666667       0.25000000 </v>
    <v>       0.33333333       0.16666667       0.25000000 </v>
    <v>       0.41666667       0.16666667       0.25000000 </v>
[...]
       <r>    8.0995    0.0000 </r>
       <r>    8.8120    0.0000 </r>
       <r>    9.0656    0.0000 </r>
       <r>   11.0561    0.0000 </r>
       <r>   12.4142    0.0000 </r>
      </set>
      <set comment="kpoint 158">
       <r>  -32.4608    1.0000 </r>
       <r>  -14.6001    1.0000 </r>
       <r>  -14.5112    1.0000 </r>
       <r>  -14.5076    1.0000 </r>
       <r>   -9.3421    1.0000 </r>
       <r>   -0.1918    1.0000 </r>
       <r>    0.7743    1.0000 </r>
       <r>    0.8319    1.0000 </r>
       <r>    4.1740    0.0000 </r>
       <r>    6.9520    0.0000 </r>
       <r>    7.6535    0.0000 </r>
       <r>    8.2891    0.0000 </r>
       <r>    8.6688    0.0000 </r>
       <r>    8.6983    0.0000 </r>
       <r>   10.6804    0.0000 </r>
       <r>   12.5820    0.0000 </r>
      </set>
      <set comment="kpoint 159">
       <r>  -32.4609    1.0000 </r>
       <r>  -14.6009    1.0000 </r>
       <r>  -14.5049    1.0000 </r>
       <r>  -14.5049    1.0000 </r>
       <r>   -9.3755    1.0000 </r>
       <r>   -0.2012    1.0000 </r>
       <r>    0.9813    1.0000 </r>
       <r>    0.9813    1.0000 </r>
       <r>    3.8351    0.0000 </r>
       <r>    6.6919    0.0000 </r>
       <r>    7.3025    0.0000 </r>
       <r>    8.6475    0.0000 </r>
       <r>    8.7129    0.0000 </r>
       <r>    8.7129    0.0000 </r>
       <r>   10.7388    0.0000 </r>
       <r>   12.8754    0.0000 </r>
      </set>
      <set comment="kpoint 160">
       <r>  -32.4602    1.0000 </r>
       <r>  -14.6010    1.0000 </r>
       <r>  -14.5165    1.0000 </r>
       <r>  -14.5059    1.0000 </r>
       <r>   -9.3667    1.0000 </r>
       <r>   -0.1250    1.0000 </r>
       <r>    0.8105    1.0000 </r>
       <r>    0.9289    1.0000 </r>
       <r>    3.9456    0.0000 </r>
       <r>    6.9259    0.0000 </r>
       <r>    7.5018    0.0000 </r>
       <r>    8.3900    0.0000 </r>
       <r>    8.6704    0.0000 </r>
       <r>    8.7183    0.0000 </r>
       <r>   10.6339    0.0000 </r>
       <r>   13.2152    0.0000 </r>
      </set>
      <set comment="kpoint 161">
       <r>  -32.4600    1.0000 </r>
       <r>  -14.5915    1.0000 </r>
       <r>  -14.5428    1.0000 </r>
       <r>  -14.5007    1.0000 </r>
       <r>   -9.3245    1.0000 </r>
       <r>   -0.0442    1.0000 </r>
       <r>    0.4259    1.0000 </r>
       <r>    0.8209    1.0000 </r>
       <r>    4.3623    0.0000 </r>
       <r>    7.4389    0.0000 </r>
       <r>    7.9122    0.0000 </r>
       <r>    8.2456    0.0000 </r>
       <r>    8.2707    0.0000 </r>
       <r>    8.5272    0.0000 </r>
       <r>   10.7321    0.0000 </r>
       <r>   12.7085    0.0000 </r>
      </set>
      <set comment="kpoint 162">
       <r>  -32.4600    1.0000 </r>
       <r>  -14.5977    1.0000 </r>
       <r>  -14.5162    1.0000 </r>
       <r>  -14.5155    1.0000 </r>
       <r>   -9.3553    1.0000 </r>
       <r>   -0.0787    1.0000 </r>
       <r>    0.7393    1.0000 </r>
       <r>    0.8122    1.0000 </r>
       <r>    4.0968    0.0000 </r>
       <r>    7.0023    0.0000 </r>
       <r>    7.7460    0.0000 </r>
       <r>    8.3318    0.0000 </r>
       <r>    8.3645    0.0000 </r>
       <r>    8.8044    0.0000 </r>
       <r>   10.6778    0.0000 </r>
       <r>   13.2366    0.0000 </r>
      </set>
      <set comment="kpoint 163">
       <r>  -32.4600    1.0000 </r>
       <r>  -14.6041    1.0000 </r>
       <r>  -14.5092    1.0000 </r>
       <r>  -14.5092    1.0000 </r>
       <r>   -9.3875    1.0000 </r>
       <r>   -0.1135    1.0000 </r>
       <r>    0.9662    1.0000 </r>
       <r>    0.9662    1.0000 </r>
       <r>    3.7525    0.0000 </r>
       <r>    6.7382    0.0000 </r>
       <r>    7.3883    0.0000 </r>
       <r>    8.4215    0.0000 </r>
       <r>    8.8006    0.0000 </r>
       <r>    8.8006    0.0000 </r>
       <r>   10.5532    0.0000 </r>
       <r>   13.7680    0.0000 </r>
      </set>
     </set>
    </set>
   </array>
  </eigenvalues>
  <separator name="orbital magnetization" >
   <v name="MAGDIPOLOUT">      0.00000000      0.00000000      0.00000000</v>
  </separator>
  <dos>
   <i name="efermi">      1.68354594 </i>
   <total>
    <array>
     <dimension dim="1">gridpoints</dimension>
     <dimension dim="2">spin</dimension>
     <field>energy</field>
     <field>total</field>
     <field>integrated</field>
     <set>
      <set comment="spin 1">
       <r>   -34.8806     0.0000     0.0000 </r>
       <r>   -34.7041     0.0000     0.0000 </r>
       <r>   -34.5276     0.0000     0.0000 </r>
       <r>   -34.3510     0.0000     0.0000 </r>
       <r>   -34.1745     0.0000     0.0000 </r>
       <r>   -33.9980     0.0000     0.0000 </r>
       <r>   -33.8214     0.0000     0.0000 </r>
       <r>   -33.6449     0.0000     0.0000 </r>
       <r>   -33.4684     0.0000     0.0000 </r>
       <r>   -33.2918     0.0000     0.0000 </r>
       <r>   -33.1153     0.0000     0.0000 </r>
       <r>   -32.9388     0.0000     0.0000 </r>
       <r>   -32.7622     0.0000     0.0000 </r>
       <r>   -32.5857     0.0000     0.0000 </r>
       <r>   -32.4092    11.3294     2.0000 </r>
       <r>   -32.2327     0.0000     2.0000 </r>
       <r>   -32.0561     0.0000     2.0000 </r>
       <r>   -31.8796     0.0000     2.0000 </r>
       <r>   -31.7031     0.0000     2.0000 </r>
       <r>   -31.5265     0.0000     2.0000 </r>
       <r>   -31.3500     0.0000     2.0000 </r>
       <r>   -31.1735     0.0000     2.0000 </r>
       <r>   -30.9969     0.0000     2.0000 </r>
       <r>   -30.8204     0.0000     2.0000 </r>
       <r>   -30.6439     0.0000     2.0000 </r>
       <r>   -30.4673     0.0000     2.0000 </r>
       <r>   -30.2908     0.0000     2.0000 </r>
       <r>   -30.1143     0.0000     2.0000 </r>
       <r>   -29.9377     0.0000     2.0000 </r>
       <r>   -29.7612     0.0000     2.0000 </r>
       <r>   -29.5847     0.0000     2.0000 </r>
       <r>   -29.4081     0.0000     2.0000 </r>
       <r>   -29.2316     0.0000     2.0000 </r>
       <r>   -29.0551     0.0000     2.0000 </r>
       <r>   -28.8785     0.0000     2.0000 </r>
       <r>   -28.7020     0.0000     2.0000 </r>
       <r>   -28.5255     0.0000     2.0000 </r>
       <r>   -28.3490     0.0000     2.0000 </r>
       <r>   -28.1724     0.0000     2.0000 </r>
       <r>   -27.9959     0.0000     2.0000 </r>
       <r>   -27.8194     0.0000     2.0000 </r>
       <r>   -27.6428     0.0000     2.0000 </r>
       <r>   -27.4663     0.0000     2.0000 </r>
       <r>   -27.2898     0.0000     2.0000 </r>
       <r>   -27.1132     0.0000     2.0000 </r>
       <r>   -26.9367     0.0000     2.0000 </r>
       <r>   -26.7602     0.0000     2.0000 </r>
       <r>   -26.5836     0.0000     2.0000 </r>
       <r>   -26.4071     0.0000     2.0000 </r>
       <r>   -26.2306     0.0000     2.0000 </r>
       <r>   -26.0540     0.0000     2.0000 </r>
       <r>   -25.8775     0.0000     2.0000 </r>
       <r>   -25.7010     0.0000     2.0000 </r>
       <r>   -25.5244     0.0000     2.0000 </r>
       <r>   -25.3479     0.0000     2.0000 </r>
       <r>   -25.1714     0.0000     2.0000 </r>
       <r>   -24.9948     0.0000     2.0000 </r>
       <r>   -24.8183     0.0000     2.0000 </r>
       <r>   -24.6418     0.0000     2.0000 </r>
       <r>   -24.4652     0.0000     2.0000 </r>
       <r>   -24.2887     0.0000     2.0000 </r>
       <r>   -24.1122     0.0000     2.0000 </r>
       <r>   -23.9357     0.0000     2.0000 </r>
       <r>   -23.7591     0.0000     2.0000 </r>
       <r>   -23.5826     0.0000     2.0000 </r>
       <r>   -23.4061     0.0000     2.0000 </r>
       <r>   -23.2295     0.0000     2.0000 </r>
       <r>   -23.0530     0.0000     2.0000 </r>
       <r>   -22.8765     0.0000     2.0000 </r>
       <r>   -22.6999     0.0000     2.0000 </r>
       <r>   -22.5234     0.0000     2.0000 </r>
       <r>   -22.3469     0.0000     2.0000 </r>
       <r>   -22.1703     0.0000     2.0000 </r>
       <r>   -21.9938     0.0000     2.0000 </r>
       <r>   -21.8173     0.0000     2.0000 </r>
       <r>   -21.6407     0.0000     2.0000 </r>
       <r>   -21.4642     0.0000     2.0000 </r>
       <r>   -21.2877     0.0000     2.0000 </r>
       <r>   -21.1111     0.0000     2.0000 </r>
       <r>   -20.9346     0.0000     2.0000 </r>
       <r>   -20.7581     0.0000     2.0000 </r>
       <r>   -20.5815     0.0000     2.0000 </r>
       <r>   -20.4050     0.0000     2.0000 </r>
       <r>   -20.2285     0.0000     2.0000 </r>
       <r>   -20.0519     0.0000     2.0000 </r>
       <r>   -19.8754     0.0000     2.0000 </r>
       <r>   -19.6989     0.0000     2.0000 </r>
       <r>   -19.5224     0.0000     2.0000 </r>
       <r>   -19.3458     0.0000     2.0000 </r>
       <r>   -19.1693     0.0000     2.0000 </r>
       <r>   -18.9928     0.0000     2.0000 </r>
       <r>   -18.8162     0.0000     2.0000 </r>
       <r>   -18.6397     0.0000     2.0000 </r>
       <r>   -18.4632     0.0000     2.0000 </r>
       <r>   -18.2866     0.0000     2.0000 </r>
       <r>   -18.1101     0.0000     2.0000 </r>
       <r>   -17.9336     0.0000     2.0000 </r>
       <r>   -17.7570     0.0000     2.0000 </r>
       <r>   -17.5805     0.0000     2.0000 </r>
       <r>   -17.4040     0.0000     2.0000 </r>
       <r>   -17.2274     0.0000     2.0000 </r>
       <r>   -17.0509     0.0000     2.0000 </r>
       <r>   -16.8744     0.0000     2.0000 </r>
       <r>   -16.6978     0.0000     2.0000 </r>
       <r>   -16.5213     0.0000     2.0000 </r>
       <r>   -16.3448     0.0000     2.0000 </r>
       <r>   -16.1682     0.0000     2.0000 </r>
       <r>   -15.9917     0.0000     2.0000 </r>
       <r>   -15.8152     0.0000     2.0000 </r>
       <r>   -15.6387     0.0000     2.0000 </r>
       <r>   -15.4621     0.0000     2.0000 </r>
       <r>   -15.2856     0.0000     2.0000 </r>
       <r>   -15.1091     0.0000     2.0000 </r>
       <r>   -14.9325     0.0000     2.0000 </r>
       <r>   -14.7560     0.0000     2.0000 </r>
       <r>   -14.5795     8.2888     3.6993 </r>
       <r>   -14.4029    10.3656     8.0000 </r>
       <r>   -14.2264     0.0000     8.0000 </r>
       <r>   -14.0499     0.0000     8.0000 </r>
       <r>   -13.8733     0.0000     8.0000 </r>
       <r>   -13.6968     0.0000     8.0000 </r>
       <r>   -13.5203     0.0000     8.0000 </r>
       <r>   -13.3437     0.0000     8.0000 </r>
       <r>   -13.1672     0.0000     8.0000 </r>
       <r>   -12.9907     0.0000     8.0000 </r>
       <r>   -12.8141     0.0000     8.0000 </r>
       <r>   -12.6376     0.0000     8.0000 </r>
       <r>   -12.4611     0.0000     8.0000 </r>
       <r>   -12.2845     0.0000     8.0000 </r>
       <r>   -12.1080     0.0000     8.0000 </r>
       <r>   -11.9315     0.0000     8.0000 </r>
       <r>   -11.7549     0.0000     8.0000 </r>
       <r>   -11.5784     0.0000     8.0000 </r>
       <r>   -11.4019     0.0000     8.0000 </r>
       <r>   -11.2254     0.0000     8.0000 </r>
       <r>   -11.0488     0.0000     8.0000 </r>
       <r>   -10.8723     0.0000     8.0000 </r>
       <r>   -10.6958     0.0000     8.0000 </r>
       <r>   -10.5192     0.0000     8.0000 </r>
       <r>   -10.3427     0.0000     8.0000 </r>
       <r>   -10.1662     0.0000     8.0000 </r>
       <r>    -9.9896     0.0000     8.0000 </r>
       <r>    -9.8131     0.0000     8.0000 </r>
       <r>    -9.6366     0.0976     8.0172 </r>
       <r>    -9.4600     0.3542     8.1308 </r>
       <r>    -9.2835     2.7845     8.7809 </r>
       <r>    -9.1070     2.0656     9.9619 </r>
       <r>    -8.9304     0.0000    10.0000 </r>
       <r>    -8.7539     0.0000    10.0000 </r>
       <r>    -8.5774     0.0000    10.0000 </r>
       <r>    -8.4008     0.0000    10.0000 </r>
       <r>    -8.2243     0.0000    10.0000 </r>
       <r>    -8.0478     0.0000    10.0000 </r>
       <r>    -7.8712     0.0000    10.0000 </r>
       <r>    -7.6947     0.0000    10.0000 </r>
       <r>    -7.5182     0.0000    10.0000 </r>
       <r>    -7.3416     0.0000    10.0000 </r>
       <r>    -7.1651     0.0000    10.0000 </r>
       <r>    -6.9886     0.0000    10.0000 </r>
       <r>    -6.8121     0.0000    10.0000 </r>
       <r>    -6.6355     0.0000    10.0000 </r>
       <r>    -6.4590     0.0000    10.0000 </r>
       <r>    -6.2825     0.0000    10.0000 </r>
       <r>    -6.1059     0.0000    10.0000 </r>
       <r>    -5.9294     0.0000    10.0000 </r>
       <r>    -5.7529     0.0000    10.0000 </r>
       <r>    -5.5763     0.0000    10.0000 </r>
       <r>    -5.3998     0.0000    10.0000 </r>
       <r>    -5.2233     0.0000    10.0000 </r>
       <r>    -5.0467     0.0000    10.0000 </r>
       <r>    -4.8702     0.0000    10.0000 </r>
       <r>    -4.6937     0.0000    10.0000 </r>
       <r>    -4.5171     0.0000    10.0000 </r>
       <r>    -4.3406     0.0000    10.0000 </r>
       <r>    -4.1641     0.0000    10.0000 </r>
       <r>    -3.9875     0.0000    10.0000 </r>
       <r>    -3.8110     0.0000    10.0000 </r>
       <r>    -3.6345     0.0000    10.0000 </r>
       <r>    -3.4579     0.0000    10.0000 </r>
       <r>    -3.2814     0.0000    10.0000 </r>
       <r>    -3.1049     0.0000    10.0000 </r>
       <r>    -2.9284     0.0000    10.0000 </r>
       <r>    -2.7518     0.0000    10.0000 </r>
       <r>    -2.5753     0.0000    10.0000 </r>
       <r>    -2.3988     0.0000    10.0000 </r>
       <r>    -2.2222     0.0000    10.0000 </r>
       <r>    -2.0457     0.0000    10.0000 </r>
       <r>    -1.8692     0.0000    10.0000 </r>
       <r>    -1.6926     0.0000    10.0000 </r>
       <r>    -1.5161     0.0000    10.0000 </r>
       <r>    -1.3396     0.0000    10.0000 </r>
       <r>    -1.1630     0.0000    10.0000 </r>
       <r>    -0.9865     0.1576    10.0325 </r>
       <r>    -0.8100     0.4273    10.1449 </r>
       <r>    -0.6334     0.1688    10.3215 </r>
       <r>    -0.4569     0.5215    10.7402 </r>
       <r>    -0.2804     1.6717    11.2766 </r>
       <r>    -0.1038     0.6079    11.6166 </r>
       <r>     0.0727     0.5308    11.8865 </r>
       <r>     0.2492     1.0894    12.1171 </r>
       <r>     0.4258     1.5042    12.6278 </r>
       <r>     0.6023     3.1093    14.0500 </r>
       <r>     0.7788     1.9882    14.8382 </r>
       <r>     0.9554     1.0221    15.4038 </r>
       <r>     1.1319     0.5188    15.7432 </r>
       <r>     1.3084     0.3236    15.9240 </r>
       <r>     1.4849     0.1834    15.9965 </r>
       <r>     1.6615     0.0000    16.0000 </r>
       <r>     1.8380     0.0000    16.0000 </r>
       <r>     2.0145     0.0000    16.0000 </r>
       <r>     2.1911     0.0000    16.0000 </r>
       <r>     2.3676     0.0000    16.0000 </r>
       <r>     2.5441     0.0000    16.0000 </r>
       <r>     2.7207     0.0000    16.0000 </r>
       <r>     2.8972     0.0000    16.0000 </r>
       <r>     3.0737     0.0000    16.0000 </r>
       <r>     3.2503     0.0000    16.0000 </r>
       <r>     3.4268     0.0000    16.0000 </r>
       <r>     3.6033     0.0000    16.0000 </r>
       <r>     3.7799     0.0197    16.0035 </r>
       <r>     3.9564     0.1475    16.0365 </r>
       <r>     4.1329     0.2754    16.0868 </r>
       <r>     4.3095     0.0000    16.1146 </r>
       <r>     4.4860     0.3606    16.2199 </r>
       <r>     4.6625     0.1572    16.3032 </r>
       <r>     4.8391     0.2484    16.4304 </r>
       <r>     5.0156     0.7277    16.5660 </r>
       <r>     5.1921     0.7763    16.7551 </r>
       <r>     5.3687     0.7946    17.0037 </r>
       <r>     5.5452     0.9528    17.2492 </r>
       <r>     5.7217     0.7830    17.4403 </r>
       <r>     5.8982     0.8744    17.7898 </r>
       <r>     6.0748     0.2654    17.9855 </r>
       <r>     6.2513     0.9141    18.4380 </r>
       <r>     6.4278     0.9047    18.6771 </r>
       <r>     6.6044     0.9230    18.9095 </r>
       <r>     6.7809     1.3431    19.3771 </r>
       <r>     6.9574     1.5034    19.8395 </r>
       <r>     7.1340     1.8745    20.3772 </r>
       <r>     7.3105     1.1309    20.7992 </r>
       <r>     7.4870     1.5471    21.4594 </r>
       <r>     7.6636     1.6554    21.9878 </r>
       <r>     7.8401     1.3730    22.8176 </r>
       <r>     8.0166     0.7253    23.2588 </r>
       <r>     8.1932     2.0866    24.1172 </r>
       <r>     8.3697     1.8699    24.9609 </r>
       <r>     8.5462     1.6913    25.5023 </r>
       <r>     8.7228     1.6120    26.0161 </r>
       <r>     8.8993     0.0727    26.2420 </r>
       <r>     9.0758     0.4207    26.6507 </r>
       <r>     9.2524     0.3615    26.7930 </r>
       <r>     9.4289     0.3213    26.8831 </r>
       <r>     9.6054     1.2939    27.3511 </r>
       <r>     9.7819     0.3147    27.4977 </r>
       <r>     9.9585     0.4721    27.7014 </r>
       <r>    10.1350     0.4721    27.8403 </r>
       <r>    10.3115     0.2499    27.9677 </r>
       <r>    10.4881     0.6908    28.3187 </r>
       <r>    10.6646     1.2331    28.7524 </r>
       <r>    10.8411     1.7861    29.3384 </r>
       <r>    11.0177     0.6180    29.5952 </r>
       <r>    11.1942     1.1069    30.0519 </r>
       <r>    11.3707     1.0701    30.2537 </r>
       <r>    11.5473     0.9578    30.6112 </r>
       <r>    11.7238     0.3693    30.7944 </r>
       <r>    11.9003     0.8586    31.0983 </r>
       <r>    12.0769     0.6426    31.3657 </r>
       <r>    12.2534     0.7075    31.5578 </r>
       <r>    12.4299     0.4422    31.6568 </r>
       <r>    12.6065     0.6294    31.8148 </r>
       <r>    12.7830     0.0787    31.8634 </r>
       <r>    12.9595     0.0513    31.8794 </r>
       <r>    13.1361     0.0000    31.8796 </r>
       <r>    13.3126     0.1177    31.9282 </r>
       <r>    13.4891     0.0524    31.9375 </r>
       <r>    13.6657     0.0000    31.9653 </r>
       <r>    13.8422     0.0197    31.9826 </r>
       <r>    14.0187     0.0000    31.9826 </r>
       <r>    14.1952     0.0000    31.9826 </r>
       <r>    14.3718     0.0000    31.9826 </r>
       <r>    14.5483     0.0000    31.9826 </r>
       <r>    14.7248     0.0915    31.9988 </r>
       <r>    14.9014     0.0000    31.9988 </r>
       <r>    15.0779     0.0000    31.9988 </r>
       <r>    15.2544     0.0000    31.9988 </r>
       <r>    15.4310     0.0000    31.9988 </r>
       <r>    15.6075     0.0000    31.9988 </r>
       <r>    15.7840     0.0000    32.0000 </r>
       <r>    15.9606     0.0000    32.0000 </r>
       <r>    16.1371     0.0000    32.0000 </r>
       <r>    16.3136     0.0000    32.0000 </r>
       <r>    16.4902     0.0000    32.0000 </r>
       <r>    16.6667     0.0000    32.0000 </r>
       <r>    16.8432     0.0000    32.0000 </r>
       <r>    17.0198     0.0000    32.0000 </r>
       <r>    17.1963     0.0000    32.0000 </r>
       <r>    17.3728     0.0000    32.0000 </r>
       <r>    17.5494     0.0000    32.0000 </r>
       <r>    17.7259     0.0000    32.0000 </r>
       <r>    17.9024     0.0000    32.0000 </r>
       <r>    18.0790     0.0000    32.0000 </r>
      </set>
     </set>
    </array>
   </total>
  </dos>
 </calculation>
 <structure name="finalpos" >
  <crystal>
   <varray name="basis" >
    <v>      -3.13971063       0.00000000       3.13971063 </v>
    <v>       0.00000000       3.13971063       3.13971063 </v>
    <v>      -3.13971063       3.13971063       0.00000000 </v>
   </varray>
   <i name="volume">     61.90117132 </i>
   <varray name="rec_basis" >
    <v>      -0.15925034      -0.15925034       0.15925034 </v>
    <v>       0.15925034       0.15925034       0.15925034 </v>
    <v>      -0.15925034       0.15925034      -0.15925034 </v>
   </varray>
  </crystal>
  <varray name="positions" >
   <v>       0.00000000       0.00000000       0.00000000 </v>
   <v>       0.49999996       0.50000004       0.49999996 </v>
  </varray>
 </structure>
</modeling>
