
     Program PWSCF v.7.1 starts on 11Apr2024 at  9:51:51 

     This program is part of the open-source Quantum ESPRESSO suite
     for quantum simulation of materials; please cite
         "P. Giannozzi et al., J. Phys.:Condens. Matter 21 395502 (2009);
         "P. Giannozzi et al., J. Phys.:Condens. Matter 29 465901 (2017);
         "P. Giannozzi et al., J. Chem. Phys. 152 154105 (2020);
          URL http://www.quantum-espresso.org", 
     in publications or presentations arising from this work. More details at
     http://www.quantum-espresso.org/quote

     Parallel version (MPI), running on    16 processors

     MPI processes distributed on     1 nodes
     246625 MiB available memory on the printing compute node when the environment starts
 
     Reading input from pw_mp-23202_nscf_k3000_E130.in
Warning: card &IONS ignored
Warning: card / ignored
Warning: card &CELL ignored
Warning: card / ignored

     Current dimensions of program PWSCF are:
     Max number of different atomic species (ntypx) = 10
     Max number of k-points (npk) =  40000
     Max angular momentum in pseudopotentials (lmaxx) =  4

     Atomic positions and unit cell read from directory:
     out/mp-23202.save/
     Atomic positions from file used, from input discarded
 
 
     R & G space division:  proc/nbgrp/npool/nimage =      16
     Subspace diagonalization in iterative solution of the eigenvalue problem:
     a serial algorithm will be used

 
     Parallelization info
     --------------------
     sticks:   dense  smooth     PW     G-vecs:    dense   smooth      PW
     Min         289     289     80                12763    12763    1900
     Max         290     290     81                12766    12766    1905
     Sum        4629    4629   1291               204235   204235   30437
 
     Using Slab Decomposition
 


     bravais-lattice index     =            9
     lattice parameter (alat)  =       9.1845  a.u.
     unit-cell volume          =    1019.8052 (a.u.)^3
     number of atoms/cell      =            4
     number of atomic types    =            2
     number of electrons       =        60.00
     number of Kohn-Sham states=           60
     kinetic-energy cutoff     =     130.0000  Ry
     charge density cutoff     =     520.0000  Ry
     Exchange-correlation= PBE
                           (   1   4   3   4   0   0   0)

     celldm(1)=   9.184529  celldm(2)=   2.647041  celldm(3)=   0.994526
     celldm(4)=   0.000000  celldm(5)=   0.000000  celldm(6)=   0.000000

     crystal axes: (cart. coord. in units of alat)
               a(1) = (   0.500000   1.323520   0.000000 )  
               a(2) = (  -0.500000   1.323520   0.000000 )  
               a(3) = (   0.000000   0.000000   0.994526 )  

     reciprocal axes: (cart. coord. in units 2 pi/alat)
               b(1) = (  1.000000  0.377780  0.000000 )  
               b(2) = ( -1.000000  0.377780  0.000000 )  
               b(3) = (  0.000000  0.000000  1.005505 )  


     PseudoPot. # 1 for I  read from file:
     /usr/scratch4/magr4826/Promotion/Python/Code/devEb/pseudo/SG15/I.upf
     MD5 check sum: 8277ef51204d8074ead4596f3b37a2aa
     Pseudo is Norm-conserving, Zval = 17.0
     Generated using ONCVPSP code by D. R. Hamann
     Using radial grid of  602 points,  6 beta functions with: 
                l(1) =   0
                l(2) =   0
                l(3) =   1
                l(4) =   1
                l(5) =   2
                l(6) =   2

     PseudoPot. # 2 for In read from file:
     /usr/scratch4/magr4826/Promotion/Python/Code/devEb/pseudo/SG15/In.upf
     MD5 check sum: 2123f823f6143602c63cd302e3a0bdd6
     Pseudo is Norm-conserving, Zval = 13.0
     Generated using ONCVPSP code by D. R. Hamann
     Using radial grid of  602 points,  6 beta functions with: 
                l(1) =   0
                l(2) =   0
                l(3) =   1
                l(4) =   1
                l(5) =   2
                l(6) =   2

     atomic species   valence    mass     pseudopotential
        I             17.00   126.90450     I ( 1.00)
        In            13.00   114.81800     In( 1.00)

      8 Sym. Ops., with inversion, found ( 4 have fractional translation)



   Cartesian axes

     site n.     atom                  positions (alat units)
         1           In  tau(   1) = (   0.0000000   1.5968720   0.7458942  )
         2           In  tau(   2) = (   0.0000000   1.0501691   0.2486314  )
         3           I   tau(   3) = (   0.0000000   2.2603183   0.7458942  )
         4           I   tau(   4) = (   0.0000000   0.3867228   0.2486314  )

     number of k points=   147  Gaussian smearing, width (Ry)=  0.0005

     Number of k-points >= 100: set verbosity='high' to print them.

     Dense  grid:   204235 G-vectors     FFT dimensions: (  96,  96,  72)

     Estimated max dynamical RAM per process >     233.30 MB

     Estimated total dynamical RAM >       3.65 GB

     The potential is recalculated from file :
     out/mp-23202.save/charge-density

     Starting wfcs are random

     Band Structure Calculation
     Davidson diagonalization with overlap

     ethr =  5.00E-06,  avg # of iterations = 27.7

     total cpu time spent up to now is      119.0 secs

     End of band structure calculation

     Number of k-points >= 100: set verbosity='high' to print the bands.

     the Fermi energy is     7.3481 ev
     (compare with:     7.3474 eV, computed in scf)

     Writing all to output data dir out/mp-23202.save/
 
     init_run     :      0.34s CPU      0.61s WALL (       1 calls)
     electrons    :    106.13s CPU    116.90s WALL (       1 calls)

     Called by init_run:
     wfcinit      :      0.00s CPU      0.16s WALL (       1 calls)
     potinit      :      0.02s CPU      0.12s WALL (       1 calls)
     hinit0       :      0.05s CPU      0.05s WALL (       1 calls)

     Called by electrons:
     c_bands      :    106.13s CPU    116.89s WALL (       1 calls)
     v_of_rho     :      0.02s CPU      0.02s WALL (       1 calls)

     Called by c_bands:
     init_us_2    :      0.03s CPU      0.05s WALL (     147 calls)
     init_us_2:cp :      0.03s CPU      0.05s WALL (     147 calls)
     cegterg      :    100.02s CPU    101.49s WALL (     299 calls)

     Called by *egterg:
     cdiaghg      :     11.78s CPU     12.07s WALL (    4219 calls)
     h_psi        :     77.23s CPU     78.17s WALL (    4518 calls)
     g_psi        :      0.41s CPU      0.41s WALL (    4072 calls)

     Called by h_psi:
     h_psi:calbec :      2.35s CPU      2.39s WALL (    4518 calls)
     vloc_psi     :     72.40s CPU     73.18s WALL (    4518 calls)
     add_vuspsi   :      2.10s CPU      2.12s WALL (    4518 calls)

     General routines
     calbec       :      2.35s CPU      2.38s WALL (    4518 calls)
     fft          :      0.01s CPU      0.01s WALL (      10 calls)
     fftw         :     66.38s CPU     67.09s WALL (  289252 calls)
 
     Parallel routines
 
     PWSCF        :   1m50.50s CPU   2m24.37s WALL

 
   This run was terminated on:   9:54:16  11Apr2024            

=------------------------------------------------------------------------------=
   JOB DONE.
=------------------------------------------------------------------------------=
