
     Program PWSCF v.7.1 starts on  3Jan2024 at 14:31:25 

     This program is part of the open-source Quantum ESPRESSO suite
     for quantum simulation of materials; please cite
         "P. Giannozzi et al., J. Phys.:Condens. Matter 21 395502 (2009);
         "P. Giannozzi et al., J. Phys.:Condens. Matter 29 465901 (2017);
         "P. Giannozzi et al., J. Chem. Phys. 152 154105 (2020);
          URL http://www.quantum-espresso.org", 
     in publications or presentations arising from this work. More details at
     http://www.quantum-espresso.org/quote

     Parallel version (MPI), running on     8 processors

     MPI processes distributed on     1 nodes
     123366 MiB available memory on the printing compute node when the environment starts
 
     Reading input from pw_mp-2472_nscf_k3000_E140.in
Warning: card &IONS ignored
Warning: card / ignored
Warning: card &CELL ignored
Warning: card / ignored

     Current dimensions of program PWSCF are:
     Max number of different atomic species (ntypx) = 10
     Max number of k-points (npk) =  40000
     Max angular momentum in pseudopotentials (lmaxx) =  4

     Atomic positions and unit cell read from directory:
     out/mp-2472.save/
     Atomic positions from file used, from input discarded
 
 
     R & G space division:  proc/nbgrp/npool/nimage =       8
     Subspace diagonalization in iterative solution of the eigenvalue problem:
     a serial algorithm will be used

 
     Parallelization info
     --------------------
     sticks:   dense  smooth     PW     G-vecs:    dense   smooth      PW
     Min         227     227     64                 6489     6489     997
     Max         231     231     65                 6490     6490    1000
     Sum        1831    1831    517                51913    51913    7991
 
     Using Slab Decomposition
 


     bravais-lattice index     =            2
     lattice parameter (alat)  =       9.7653  a.u.
     unit-cell volume          =     232.8067 (a.u.)^3
     number of atoms/cell      =            2
     number of atomic types    =            2
     number of electrons       =        16.00
     number of Kohn-Sham states=           16
     kinetic-energy cutoff     =     140.0000  Ry
     charge density cutoff     =     560.0000  Ry
     Exchange-correlation= PBE
                           (   1   4   3   4   0   0   0)

     celldm(1)=   9.765290  celldm(2)=   0.000000  celldm(3)=   0.000000
     celldm(4)=   0.000000  celldm(5)=   0.000000  celldm(6)=   0.000000

     crystal axes: (cart. coord. in units of alat)
               a(1) = (  -0.500000   0.000000   0.500000 )  
               a(2) = (   0.000000   0.500000   0.500000 )  
               a(3) = (  -0.500000   0.500000   0.000000 )  

     reciprocal axes: (cart. coord. in units 2 pi/alat)
               b(1) = ( -1.000000 -1.000000  1.000000 )  
               b(2) = (  1.000000  1.000000  1.000000 )  
               b(3) = ( -1.000000  1.000000 -1.000000 )  


     PseudoPot. # 1 for O  read from file:
     /usr/scratch4/magr4985/MG/devEb/pseudo/SG15/O.upf
     MD5 check sum: 9d2d0a8c71a1ad34a0c43284618bc51d
     Pseudo is Norm-conserving, Zval =  6.0
     Generated using ONCVPSP code by D. R. Hamann
     Using radial grid of  602 points,  4 beta functions with: 
                l(1) =   0
                l(2) =   0
                l(3) =   1
                l(4) =   1

     PseudoPot. # 2 for Sr read from file:
     /usr/scratch4/magr4985/MG/devEb/pseudo/SG15/Sr.upf
     MD5 check sum: 7138e3241744793a1037e143c224f249
     Pseudo is Norm-conserving, Zval = 10.0
     Generated using ONCVPSP code by D. R. Hamann
     Using radial grid of  602 points,  6 beta functions with: 
                l(1) =   0
                l(2) =   0
                l(3) =   1
                l(4) =   1
                l(5) =   2
                l(6) =   2

     atomic species   valence    mass     pseudopotential
        O              6.00    15.99940     O ( 1.00)
        Sr            10.00    87.62000     Sr( 1.00)

     48 Sym. Ops., with inversion, found



   Cartesian axes

     site n.     atom                  positions (alat units)
         1           Sr  tau(   1) = (  -0.5000000   0.5000000   0.5000000  )
         2           O   tau(   2) = (   0.0000000   0.0000000   0.0000000  )

     number of k points=   413  Gaussian smearing, width (Ry)=  0.0005

     Number of k-points >= 100: set verbosity='high' to print them.

     Dense  grid:    51913 G-vectors     FFT dimensions: (  54,  54,  54)

     Estimated max dynamical RAM per process >       7.63 MB

     Estimated total dynamical RAM >      61.01 MB

     The potential is recalculated from file :
     out/mp-2472.save/charge-density

     Starting wfcs are random

     Band Structure Calculation
     Davidson diagonalization with overlap

     ethr =  5.00E-06,  avg # of iterations = 17.4

     total cpu time spent up to now is       49.5 secs

     End of band structure calculation

     Number of k-points >= 100: set verbosity='high' to print the bands.

     the Fermi energy is    10.0501 ev
     (compare with:    10.0612 eV, computed in scf)

     Writing all to output data dir out/mp-2472.save/
 
     init_run     :      0.11s CPU      0.12s WALL (       1 calls)
     electrons    :     46.72s CPU     49.17s WALL (       1 calls)

     Called by init_run:
     wfcinit      :      0.00s CPU      0.00s WALL (       1 calls)
     potinit      :      0.02s CPU      0.02s WALL (       1 calls)
     hinit0       :      0.01s CPU      0.02s WALL (       1 calls)

     Called by electrons:
     c_bands      :     46.72s CPU     49.17s WALL (       1 calls)
     v_of_rho     :      0.02s CPU      0.02s WALL (       1 calls)

     Called by c_bands:
     init_us_2    :      0.08s CPU      0.10s WALL (     413 calls)
     init_us_2:cp :      0.08s CPU      0.10s WALL (     413 calls)
     cegterg      :     42.49s CPU     43.47s WALL (     475 calls)

     Called by *egterg:
     cdiaghg      :      2.64s CPU      2.69s WALL (    7611 calls)
     h_psi        :     38.36s CPU     39.32s WALL (    8086 calls)
     g_psi        :      0.37s CPU      0.37s WALL (    7198 calls)

     Called by h_psi:
     h_psi:calbec :      0.91s CPU      0.93s WALL (    8086 calls)
     vloc_psi     :     36.60s CPU     37.52s WALL (    8086 calls)
     add_vuspsi   :      0.68s CPU      0.70s WALL (    8086 calls)

     General routines
     calbec       :      0.89s CPU      0.92s WALL (    8086 calls)
     fft          :      0.01s CPU      0.01s WALL (      10 calls)
     fftw         :     32.61s CPU     33.41s WALL (  170948 calls)
     davcio       :      0.08s CPU      0.47s WALL (     826 calls)
 
     Parallel routines
 
     PWSCF        :     47.88s CPU     51.92s WALL

 
   This run was terminated on:  14:32:17   3Jan2024            

=------------------------------------------------------------------------------=
   JOB DONE.
=------------------------------------------------------------------------------=
