 
             +---------------------------------------------------+
             |                                                   |
             |                   WANNIER90                       |
             |                                                   |
             +---------------------------------------------------+
             |                                                   |
             |        Welcome to the Maximally-Localized         |
             |        Generalized Wannier Functions code         |
             |            http://www.wannier.org                 |
             |                                                   |
             |                                                   |
             |  Wannier90 Developer Group:                       |
             |    Giovanni Pizzi    (EPFL)                       |
             |    Valerio Vitale    (Cambridge)                  |
             |    David Vanderbilt  (Rutgers University)         |
             |    Nicola Marzari    (EPFL)                       |
             |    Ivo Souza         (Universidad del Pais Vasco) |
             |    Arash A. Mostofi  (Imperial College London)    |
             |    Jonathan R. Yates (University of Oxford)       |
             |                                                   |
             |  For the full list of Wannier90 3.x authors,      |
             |  please check the code documentation and the      |
             |  README on the GitHub page of the code            |
             |                                                   |
             |                                                   |
             |  Please cite                                      |
             |                                                   |
             |  [ref] "Wannier90 as a community code:            |
             |        new features and applications",            |
             |        G. Pizzi et al., J. Phys. Cond. Matt. 32,  |
             |        165902 (2020).                             |
             |        http://doi.org/10.1088/1361-648X/ab51ff    |
             |                                                   |
             |  in any publications arising from the use of      |
             |  this code. For the method please cite            |
             |                                                   |
             |  [ref] "Maximally Localized Generalised Wannier   |
             |         Functions for Composite Energy Bands"     |
             |         N. Marzari and D. Vanderbilt              |
             |         Phys. Rev. B 56 12847 (1997)              |
             |                                                   |
             |  [ref] "Maximally Localized Wannier Functions     |
             |         for Entangled Energy Bands"               |
             |         I. Souza, N. Marzari and D. Vanderbilt    |
             |         Phys. Rev. B 65 035109 (2001)             |
             |                                                   |
             |                                                   |
             | Copyright (c) 1996-2020                           |
             |        The Wannier90 Developer Group and          |
             |        individual contributors                    |
             |                                                   |
             |      Release: 3.1.0        5th March    2020      |
             |                                                   |
             | This program is free software; you can            |
             | redistribute it and/or modify it under the terms  |
             | of the GNU General Public License as published by |
             | the Free Software Foundation; either version 2 of |
             | the License, or (at your option) any later version|
             |                                                   |
             | This program is distributed in the hope that it   |
             | will be useful, but WITHOUT ANY WARRANTY; without |
             | even the implied warranty of MERCHANTABILITY or   |
             | FITNESS FOR A PARTICULAR PURPOSE. See the GNU     |
             | General Public License for more details.          |
             |                                                   |
             | You should have received a copy of the GNU General|
             | Public License along with this program; if not,   |
             | write to the Free Software Foundation, Inc.,      |
             | 675 Mass Ave, Cambridge, MA 02139, USA.           |
             |                                                   |
             +---------------------------------------------------+
             |    Execution started on  3Jan2024 at 14:35:10     |
             +---------------------------------------------------+
 
 ******************************************************************************
 * -> Using CODATA 2006 constant values                                       *
 *    (http://physics.nist.gov/cuu/Constants/index.html)                      *
 * -> Using Bohr value from CODATA                                            *
 ******************************************************************************
 

 Running in parallel on   8 CPUs

 
                                    ------
                                    SYSTEM
                                    ------
 
                              Lattice Vectors (Ang)
                    a_1     3.837467   0.000000   0.000000
                    a_2     0.000000   3.837467   0.000000
                    a_3     0.000000   0.000000   3.837467
 
                   Unit Cell Volume:      56.51113  (Ang^3)
 
                        Reciprocal-Space Vectors (Ang^-1)
                    b_1     1.637326   0.000000   0.000000
                    b_2     0.000000   1.637326   0.000000
                    b_3     0.000000   0.000000   1.637326
  
 *----------------------------------------------------------------------------*
 |   Site       Fractional Coordinate          Cartesian Coordinate (Ang)     |
 +----------------------------------------------------------------------------+
 | Tl   1   0.00000   0.00000   0.00000   |    0.00000   0.00000   0.00000    |
 | Cl   1   0.50000   0.50000   0.50000   |    1.91873   1.91873   1.91873    |
 *----------------------------------------------------------------------------*
                                ------------
                                K-POINT GRID
                                ------------
  
             Grid size = 12 x 12 x 12      Total points = 1728
  
  
 *---------------------------------- MAIN ------------------------------------*
 |  Number of Wannier Functions               :                 4             |
 |  Number of Objective Wannier Functions     :                 4             |
 |  Number of input Bloch states              :                 4             |
 |  Output verbosity (1=low, 5=high)          :                 1             |
 |  Timing Level (1=low, 5=high)              :                 1             |
 |  Optimisation (0=memory, 3=speed)          :                 3             |
 |  Length Unit                               :               Ang             |
 |  Post-processing setup (write *.nnkp)      :                 F             |
 |  Using Gamma-only branch of algorithms     :                 F             |
 *----------------------------------------------------------------------------*
 *------------------------------- WANNIERISE ---------------------------------*
 |  Total number of iterations                :               500             |
 |  Number of CG steps before reset           :                 5             |
 |  Trial step length for line search         :             2.000             |
 |  Convergence tolerence                     :         0.100E-09             |
 |  Convergence window                        :                -1             |
 |  Iterations between writing output         :                 1             |
 |  Iterations between backing up to disk     :               100             |
 |  Write r^2_nm to file                      :                 F             |
 |  Write xyz WF centres to file              :                 F             |
 |  Write on-site energies <0n|H|0n> to file  :                 F             |
 |  Use guiding centre to control phases      :                 F             |
 |  Use phases for initial projections        :                 F             |
 *----------------------------------------------------------------------------*
 Time to read parameters        0.114 (sec)

 *---------------------------------- K-MESH ----------------------------------*
 +----------------------------------------------------------------------------+
 |                    Distance to Nearest-Neighbour Shells                    |
 |                    ------------------------------------                    |
 |          Shell             Distance (Ang^-1)          Multiplicity         |
 |          -----             -----------------          ------------         |
 |             1                   0.136444                      6            |
 |             2                   0.192961                     12            |
 |             3                   0.236328                      8            |
 |             4                   0.272888                      6            |
 |             5                   0.305098                     24            |
 |             6                   0.334218                     24            |
 |             7                   0.385921                     12            |
 |             8                   0.409332                     30            |
 |             9                   0.431473                     24            |
 |            10                   0.452533                     24            |
 |            11                   0.472655                      8            |
 |            12                   0.491955                     24            |
 |            13                   0.510526                     48            |
 |            14                   0.545775                      6            |
 |            15                   0.562572                     48            |
 |            16                   0.578882                     36            |
 |            17                   0.594745                     24            |
 |            18                   0.610195                     24            |
 |            19                   0.625264                     48            |
 |            20                   0.639978                     24            |
 |            21                   0.668436                     24            |
 |            22                   0.682219                     30            |
 |            23                   0.695730                     72            |
 |            24                   0.708983                     32            |
 |            25                   0.734773                     72            |
 |            26                   0.747334                     48            |
 |            27                   0.771843                     12            |
 |            28                   0.783810                     48            |
 |            29                   0.795598                     48            |
 |            30                   0.807213                     48            |
 |            31                   0.818663                     30            |
 |            32                   0.829956                     24            |
 |            33                   0.841096                     72            |
 |            34                   0.862947                     24            |
 |            35                   0.873667                     96            |
 |            36                   0.884257                     48            |
 +----------------------------------------------------------------------------+
 | The b-vectors are chosen automatically                                     |
 | The following shells are used:   1                                         |
 +----------------------------------------------------------------------------+
 |                        Shell   # Nearest-Neighbours                        |
 |                        -----   --------------------                        |
 |                          1               6                                 |
 +----------------------------------------------------------------------------+
 | Completeness relation is fully satisfied [Eq. (B1), PRB 56, 12847 (1997)]  |
 +----------------------------------------------------------------------------+
 |                  b_k Vectors (Ang^-1) and Weights (Ang^2)                  |
 |                  ----------------------------------------                  |
 |            No.         b_k(x)      b_k(y)      b_k(z)        w_b           |
 |            ---        --------------------------------     --------        |
 |             1         0.000000    0.000000    0.136444    26.857285        |
 |             2         0.000000    0.136444    0.000000    26.857285        |
 |             3         0.136444    0.000000    0.000000    26.857285        |
 |             4         0.000000    0.000000   -0.136444    26.857285        |
 |             5         0.000000   -0.136444    0.000000    26.857285        |
 |             6        -0.136444    0.000000    0.000000    26.857285        |
 +----------------------------------------------------------------------------+
 |                           b_k Directions (Ang^-1)                          |
 |                           -----------------------                          |
 |            No.           x           y           z                         |
 |            ---        --------------------------------                     |
 |             1         0.000000    0.000000    0.136444                     |
 |             2         0.000000    0.136444    0.000000                     |
 |             3         0.136444    0.000000    0.000000                     |
 +----------------------------------------------------------------------------+
  
 Time to get kmesh              1.171 (sec)
 *============================================================================*
 |                              MEMORY ESTIMATE                               |
 |         Maximum RAM allocated during each phase of the calculation         |
 *============================================================================*
 |                            Wannierise:            8.88 Mb                  |
 |                          plot_wannier:            8.88 Mb                  |
 *----------------------------------------------------------------------------*
  
 Starting a new Wannier90 calculation ...


 Reading overlaps from mp-23167.mmn    :  Created on  3Jan2024 at 14:35: 5

 Reading projections from mp-23167.amn :  Created on  3Jan2024 at 14:35: 5  with SCDM

 Time to read overlaps          0.212 (sec)

 Writing checkpoint file mp-23167.chk... done

 
 *------------------------------- WANNIERISE ---------------------------------*
 +--------------------------------------------------------------------+<-- CONV
 | Iter  Delta Spread     RMS Gradient      Spread (Ang^2)      Time  |<-- CONV
 +--------------------------------------------------------------------+<-- CONV
 
 ------------------------------------------------------------------------------
 Initial State
  WF centre and spread    1  ( -1.866856, -1.890853, -1.848196 )     9.70234248
  WF centre and spread    2  ( -1.890829,  1.848189,  1.866871 )     9.70218291
  WF centre and spread    3  (  1.848210, -1.866874,  1.890849 )     9.70221060
  WF centre and spread    4  (  1.856764,  1.856550, -1.856669 )    20.92653199
  Sum of centres and spreads ( -0.052710, -0.052988,  0.052855 )    50.03326798
 
      0     0.500E+02     0.0000000000       50.0332713257       0.00  <-- CONV
        O_D=      8.0508091 O_OD=     34.1302914 O_TOT=     50.0332713 <-- SPRD
 ------------------------------------------------------------------------------
 Cycle:      1
  WF centre and spread    1  ( -1.867241, -1.891352, -1.847210 )     9.85177496
  WF centre and spread    2  ( -1.891347,  1.847206,  1.867241 )     9.85161772
  WF centre and spread    3  (  1.847209, -1.867240,  1.891351 )     9.85164503
  WF centre and spread    4  (  1.841237,  1.841310, -1.841373 )    18.17047964
  Sum of centres and spreads ( -0.070141, -0.070076,  0.070009 )    47.72551735
 
      1    -0.231E+01     4.7267264921       47.7255206789       0.01  <-- CONV
        O_D=      5.3339950 O_OD=     34.5393549 O_TOT=     47.7255207 <-- SPRD
 Delta: O_D= -0.2716814E+01 O_OD=  0.4090635E+00 O_TOT= -0.2307751E+01 <-- DLTA
 ------------------------------------------------------------------------------
 Cycle:      2
  WF centre and spread    1  ( -1.867360, -1.891436, -1.846714 )     9.94224635
  WF centre and spread    2  ( -1.891429,  1.846725,  1.867375 )     9.94210345
  WF centre and spread    3  (  1.846728, -1.867360,  1.891448 )     9.94212744
  WF centre and spread    4  (  1.841415,  1.841537, -1.841369 )    16.99130145
  Sum of centres and spreads ( -0.070646, -0.070535,  0.070739 )    46.81777869
 
      2    -0.908E+00     2.2968252200       46.8177820187       0.02  <-- CONV
        O_D=      4.1996727 O_OD=     34.7659385 O_TOT=     46.8177820 <-- SPRD
 Delta: O_D= -0.1134322E+01 O_OD=  0.2265836E+00 O_TOT= -0.9077387E+00 <-- DLTA
 ------------------------------------------------------------------------------
 Cycle:      3
  WF centre and spread    1  ( -1.867450, -1.891399, -1.846596 )     9.97172505
  WF centre and spread    2  ( -1.891360,  1.846587,  1.867473 )     9.97157266
  WF centre and spread    3  (  1.846622, -1.867480,  1.891389 )     9.97161058
  WF centre and spread    4  (  1.848428,  1.848049, -1.848120 )    16.37810916
  Sum of centres and spreads ( -0.063760, -0.064243,  0.064146 )    46.29301745
 
      3    -0.525E+00     1.4080710281       46.2930207828       0.03  <-- CONV
        O_D=      3.6280726 O_OD=     34.8127774 O_TOT=     46.2930208 <-- SPRD
 Delta: O_D= -0.5716001E+00 O_OD=  0.4683888E-01 O_TOT= -0.5247612E+00 <-- DLTA
 ------------------------------------------------------------------------------
 Cycle:      4
  WF centre and spread    1  ( -1.868005, -1.891783, -1.846185 )     9.97607779
  WF centre and spread    2  ( -1.891755,  1.846160,  1.868000 )     9.97592402
  WF centre and spread    3  (  1.846184, -1.868025,  1.891755 )     9.97595548
  WF centre and spread    4  (  1.846176,  1.846036, -1.846576 )    16.06170717
  Sum of centres and spreads ( -0.067400, -0.067611,  0.066993 )    45.98966445
 
      4    -0.303E+00     1.7234967571       45.9896677844       0.03  <-- CONV
        O_D=      3.3677075 O_OD=     34.7697894 O_TOT=     45.9896678 <-- SPRD
 Delta: O_D= -0.2603651E+00 O_OD= -0.4298793E-01 O_TOT= -0.3033530E+00 <-- DLTA
 ------------------------------------------------------------------------------
 Cycle:      5
  WF centre and spread    1  ( -1.868179, -1.891823, -1.846120 )     9.97116827
  WF centre and spread    2  ( -1.891798,  1.846109,  1.868182 )     9.97101155
  WF centre and spread    3  (  1.846129, -1.868193,  1.891808 )     9.97103742
  WF centre and spread    4  (  1.861058,  1.860881, -1.860884 )    15.94652055
  Sum of centres and spreads ( -0.052790, -0.053026,  0.052988 )    45.85973779
 
      5    -0.130E+00     2.3847175790       45.8597411324       0.04  <-- CONV
        O_D=      3.2997905 O_OD=     34.7077798 O_TOT=     45.8597411 <-- SPRD
 Delta: O_D= -0.6791697E-01 O_OD= -0.6200968E-01 O_TOT= -0.1299267E+00 <-- DLTA
 ------------------------------------------------------------------------------
 Cycle:      6
  WF centre and spread    1  ( -1.868566, -1.892128, -1.845805 )     9.96656912
  WF centre and spread    2  ( -1.892103,  1.845800,  1.868575 )     9.96641412
  WF centre and spread    3  (  1.845821, -1.868580,  1.892120 )     9.96643851
  WF centre and spread    4  (  1.857634,  1.856884, -1.856562 )    15.86947967
  Sum of centres and spreads ( -0.057214, -0.058023,  0.058327 )    45.76890142
 
      6    -0.908E-01     3.4086808194       45.7689047619       0.05  <-- CONV
        O_D=      3.2568349 O_OD=     34.6598990 O_TOT=     45.7689048 <-- SPRD
 Delta: O_D= -0.4295562E-01 O_OD= -0.4788075E-01 O_TOT= -0.9083637E-01 <-- DLTA
 ------------------------------------------------------------------------------
 Cycle:      7
  WF centre and spread    1  ( -1.868601, -1.892148, -1.845798 )     9.96377258
  WF centre and spread    2  ( -1.892137,  1.845785,  1.868589 )     9.96362253
  WF centre and spread    3  (  1.845790, -1.868602,  1.892132 )     9.96365022
  WF centre and spread    4  (  1.859656,  1.860329, -1.860646 )    15.77568161
  Sum of centres and spreads ( -0.055292, -0.054636,  0.054276 )    45.66672693
 
      7    -0.102E+00     3.5633680647       45.6667302801       0.06  <-- CONV
        O_D=      3.1651954 O_OD=     34.6493641 O_TOT=     45.6667303 <-- SPRD
 Delta: O_D= -0.9163953E-01 O_OD= -0.1053495E-01 O_TOT= -0.1021745E+00 <-- DLTA
 ------------------------------------------------------------------------------
 Cycle:      8
  WF centre and spread    1  ( -1.869021, -1.892585, -1.845372 )     9.94609012
  WF centre and spread    2  ( -1.892543,  1.845355,  1.869036 )     9.94593083
  WF centre and spread    3  (  1.845389, -1.869053,  1.892564 )     9.94595385
  WF centre and spread    4  (  1.854523,  1.853154, -1.853608 )    15.63904637
  Sum of centres and spreads ( -0.061652, -0.063130,  0.062620 )    45.47702116
 
      8    -0.190E+00     2.2066402569       45.4770245038       0.07  <-- CONV
        O_D=      3.0382799 O_OD=     34.5865737 O_TOT=     45.4770245 <-- SPRD
 Delta: O_D= -0.1269154E+00 O_OD= -0.6279034E-01 O_TOT= -0.1897058E+00 <-- DLTA
 ------------------------------------------------------------------------------
 Cycle:      9
  WF centre and spread    1  ( -1.869592, -1.893066, -1.844879 )     9.92135606
  WF centre and spread    2  ( -1.893084,  1.844872,  1.869558 )     9.92120734
  WF centre and spread    3  (  1.844844, -1.869567,  1.893055 )     9.92124357
  WF centre and spread    4  (  1.844397,  1.846079, -1.846426 )    15.60074625
  Sum of centres and spreads ( -0.073436, -0.071682,  0.071308 )    45.36455322
 
      9    -0.112E+00     1.6808708371       45.3645565514       0.07  <-- CONV
        O_D=      3.0100623 O_OD=     34.5023234 O_TOT=     45.3645566 <-- SPRD
 Delta: O_D= -0.2821767E-01 O_OD= -0.8425029E-01 O_TOT= -0.1124680E+00 <-- DLTA
 ------------------------------------------------------------------------------
 Cycle:     10
  WF centre and spread    1  ( -1.870461, -1.893861, -1.844085 )     9.86564574
  WF centre and spread    2  ( -1.893873,  1.844110,  1.870464 )     9.86549165
  WF centre and spread    3  (  1.844091, -1.870438,  1.893884 )     9.86552531
  WF centre and spread    4  (  1.837918,  1.838488, -1.838169 )    15.56945292
  Sum of centres and spreads ( -0.082326, -0.081700,  0.082094 )    45.16611561
 
     10    -0.198E+00     1.7551897585       45.1661189381       0.08  <-- CONV
        O_D=      2.9990224 O_OD=     34.3149257 O_TOT=     45.1661189 <-- SPRD
 Delta: O_D= -0.1103987E-01 O_OD= -0.1873977E+00 O_TOT= -0.1984376E+00 <-- DLTA
 ------------------------------------------------------------------------------
 Cycle:     11
  WF centre and spread    1  ( -1.871404, -1.894714, -1.843382 )     9.77938900
  WF centre and spread    2  ( -1.894699,  1.843439,  1.871469 )     9.77922795
  WF centre and spread    3  (  1.843452, -1.871404,  1.894775 )     9.77927203
  WF centre and spread    4  (  1.841244,  1.842528, -1.841415 )    15.63047407
  Sum of centres and spreads ( -0.081407, -0.080151,  0.081447 )    44.96836305
 
     11    -0.198E+00     1.8101339312       44.9683663785       0.09  <-- CONV
        O_D=      3.0869848 O_OD=     34.0292108 O_TOT=     44.9683664 <-- SPRD
 Delta: O_D=  0.8796238E-01 O_OD= -0.2857149E+00 O_TOT= -0.1977526E+00 <-- DLTA
 ------------------------------------------------------------------------------
 Cycle:     12
  WF centre and spread    1  ( -1.872247, -1.895563, -1.842718 )     9.71667433
  WF centre and spread    2  ( -1.895446,  1.842765,  1.872408 )     9.71651090
  WF centre and spread    3  (  1.842889, -1.872347,  1.895620 )     9.71657594
  WF centre and spread    4  (  1.839448,  1.837234, -1.836357 )    15.73845381
  Sum of centres and spreads ( -0.085357, -0.087911,  0.088952 )    44.88821498
 
     12    -0.801E-01     2.1022075282       44.8882183063       0.10  <-- CONV
        O_D=      3.2115798 O_OD=     33.8244677 O_TOT=     44.8882183 <-- SPRD
 Delta: O_D=  0.1245950E+00 O_OD= -0.2047430E+00 O_TOT= -0.8014807E-01 <-- DLTA
 ------------------------------------------------------------------------------
 Cycle:     13
  WF centre and spread    1  ( -1.872376, -1.895653, -1.842677 )     9.71426242
  WF centre and spread    2  ( -1.895565,  1.842695,  1.872482 )     9.71410827
  WF centre and spread    3  (  1.842788, -1.872448,  1.895682 )     9.71416367
  WF centre and spread    4  (  1.837628,  1.836644, -1.838150 )    15.65699892
  Sum of centres and spreads ( -0.087524, -0.088762,  0.087337 )    44.79953328
 
     13    -0.887E-01     2.4736342972       44.7995366100       0.11  <-- CONV
        O_D=      3.1298655 O_OD=     33.8175003 O_TOT=     44.7995366 <-- SPRD
 Delta: O_D= -0.8171430E-01 O_OD= -0.6967401E-02 O_TOT= -0.8868170E-01 <-- DLTA
 ------------------------------------------------------------------------------
 Cycle:     14
  WF centre and spread    1  ( -1.872570, -1.895802, -1.842494 )     9.70953342
  WF centre and spread    2  ( -1.895749,  1.842578,  1.872698 )     9.70937436
  WF centre and spread    3  (  1.842632, -1.872606,  1.895889 )     9.70942774
  WF centre and spread    4  (  1.834535,  1.835410, -1.832699 )    15.61390180
  Sum of centres and spreads ( -0.091152, -0.090421,  0.093395 )    44.74223732
 
     14    -0.573E-01     1.7816930767       44.7422406480       0.11  <-- CONV
        O_D=      3.0857826 O_OD=     33.8042872 O_TOT=     44.7422406 <-- SPRD
 Delta: O_D= -0.4408284E-01 O_OD= -0.1321312E-01 O_TOT= -0.5729596E-01 <-- DLTA
 ------------------------------------------------------------------------------
 Cycle:     15
  WF centre and spread    1  ( -1.872783, -1.896040, -1.842361 )     9.70092129
  WF centre and spread    2  ( -1.895950,  1.842399,  1.872906 )     9.70075903
  WF centre and spread    3  (  1.842494, -1.872856,  1.896083 )     9.70081060
  WF centre and spread    4  (  1.833072,  1.831645, -1.830678 )    15.59661672
  Sum of centres and spreads ( -0.093168, -0.094853,  0.095949 )    44.69910765
 
     15    -0.431E-01     1.3584824816       44.6991109733       0.12  <-- CONV
        O_D=      3.0659413 O_OD=     33.7809989 O_TOT=     44.6991110 <-- SPRD
 Delta: O_D= -0.1984134E-01 O_OD= -0.2328833E-01 O_TOT= -0.4312967E-01 <-- DLTA
 ------------------------------------------------------------------------------
 Cycle:     16
  WF centre and spread    1  ( -1.873006, -1.896267, -1.842282 )     9.69043941
  WF centre and spread    2  ( -1.896157,  1.842257,  1.873090 )     9.69028098
  WF centre and spread    3  (  1.842372, -1.873099,  1.896250 )     9.69033304
  WF centre and spread    4  (  1.833359,  1.830081, -1.831354 )    15.59364248
  Sum of centres and spreads ( -0.093431, -0.097028,  0.095704 )    44.66469590
 
     16    -0.344E-01     1.6003727199       44.6646992293       0.13  <-- CONV
        O_D=      3.0593859 O_OD=     33.7531425 O_TOT=     44.6646992 <-- SPRD
 Delta: O_D= -0.6555403E-02 O_OD= -0.2785634E-01 O_TOT= -0.3441174E-01 <-- DLTA
 ------------------------------------------------------------------------------
 Cycle:     17
  WF centre and spread    1  ( -1.873407, -1.896542, -1.842166 )     9.67370632
  WF centre and spread    2  ( -1.896527,  1.842104,  1.873365 )     9.67356101
  WF centre and spread    3  (  1.842118, -1.873408,  1.896492 )     9.67360153
  WF centre and spread    4  (  1.827134,  1.829092, -1.830678 )    15.60901222
  Sum of centres and spreads ( -0.100682, -0.098755,  0.097013 )    44.62988108
 
     17    -0.348E-01     1.5270096358       44.6298844068       0.14  <-- CONV
        O_D=      3.0684664 O_OD=     33.7092472 O_TOT=     44.6298844 <-- SPRD
 Delta: O_D=  0.9080524E-02 O_OD= -0.4389535E-01 O_TOT= -0.3481482E-01 <-- DLTA
 ------------------------------------------------------------------------------
 Cycle:     18
  WF centre and spread    1  ( -1.873719, -1.896800, -1.842044 )     9.65935865
  WF centre and spread    2  ( -1.896810,  1.841950,  1.873623 )     9.65922161
  WF centre and spread    3  (  1.841937, -1.873697,  1.896721 )     9.65927478
  WF centre and spread    4  (  1.825108,  1.825902, -1.828829 )    15.63044884
  Sum of centres and spreads ( -0.103484, -0.102645,  0.099471 )    44.60830388
 
     18    -0.216E-01     2.5891170367       44.6083072027       0.15  <-- CONV
        O_D=      3.0841073 O_OD=     33.6720291 O_TOT=     44.6083072 <-- SPRD
 Delta: O_D=  0.1564087E-01 O_OD= -0.3721808E-01 O_TOT= -0.2157720E-01 <-- DLTA
 ------------------------------------------------------------------------------
 Cycle:     19
  WF centre and spread    1  ( -1.873719, -1.896802, -1.842038 )     9.65894461
  WF centre and spread    2  ( -1.896808,  1.841948,  1.873631 )     9.65880133
  WF centre and spread    3  (  1.841941, -1.873701,  1.896726 )     9.65885852
  WF centre and spread    4  (  1.824276,  1.825220, -1.828029 )    15.60269308
  Sum of centres and spreads ( -0.104311, -0.103335,  0.100291 )    44.57929753
 
     19    -0.290E-01     3.0786060456       44.5793008487       0.15  <-- CONV
        O_D=      3.0562686 O_OD=     33.6708615 O_TOT=     44.5793008 <-- SPRD
 Delta: O_D= -0.2783871E-01 O_OD= -0.1167642E-02 O_TOT= -0.2900635E-01 <-- DLTA
 ------------------------------------------------------------------------------
 Cycle:     20
  WF centre and spread    1  ( -1.873700, -1.896798, -1.842033 )     9.65818594
  WF centre and spread    2  ( -1.896786,  1.841954,  1.873639 )     9.65803745
  WF centre and spread    3  (  1.841966, -1.873700,  1.896731 )     9.65810497
  WF centre and spread    4  (  1.825564,  1.824649, -1.828298 )    15.58006051
  Sum of centres and spreads ( -0.102955, -0.103895,  0.100039 )    44.55438886
 
     20    -0.249E-01     2.6008571007       44.5543921843       0.16  <-- CONV
        O_D=      3.0334014 O_OD=     33.6688200 O_TOT=     44.5543922 <-- SPRD
 Delta: O_D= -0.2286720E-01 O_OD= -0.2041469E-02 O_TOT= -0.2490866E-01 <-- DLTA
 ------------------------------------------------------------------------------
 Cycle:     21
  WF centre and spread    1  ( -1.873679, -1.896761, -1.842027 )     9.65690574
  WF centre and spread    2  ( -1.896761,  1.841998,  1.873653 )     9.65676177
  WF centre and spread    3  (  1.841999, -1.873667,  1.896742 )     9.65682547
  WF centre and spread    4  (  1.826009,  1.826888, -1.827185 )    15.56374709
  Sum of centres and spreads ( -0.102432, -0.101542,  0.101182 )    44.53424007
 
     21    -0.201E-01     2.1664785989       44.5342433947       0.17  <-- CONV
        O_D=      3.0166552 O_OD=     33.6654174 O_TOT=     44.5342434 <-- SPRD
 Delta: O_D= -0.1674618E-01 O_OD= -0.3402610E-02 O_TOT= -0.2014879E-01 <-- DLTA
 ------------------------------------------------------------------------------
 Cycle:     22
  WF centre and spread    1  ( -1.873635, -1.896728, -1.842046 )     9.65470276
  WF centre and spread    2  ( -1.896710,  1.842047,  1.873656 )     9.65455835
  WF centre and spread    3  (  1.842068, -1.873640,  1.896738 )     9.65462749
  WF centre and spread    4  (  1.828868,  1.827528, -1.827578 )    15.55049300
  Sum of centres and spreads ( -0.099409, -0.100792,  0.100770 )    44.51438160
 
     22    -0.199E-01     2.0609435914       44.5143849182       0.18  <-- CONV
        O_D=      3.0026378 O_OD=     33.6595763 O_TOT=     44.5143849 <-- SPRD
 Delta: O_D= -0.1401741E-01 O_OD= -0.5841068E-02 O_TOT= -0.1985848E-01 <-- DLTA
 ------------------------------------------------------------------------------
 Cycle:     23
  WF centre and spread    1  ( -1.873621, -1.896700, -1.842069 )     9.65263921
  WF centre and spread    2  ( -1.896689,  1.842092,  1.873651 )     9.65248985
  WF centre and spread    3  (  1.842105, -1.873617,  1.896728 )     9.65255702
  WF centre and spread    4  (  1.828073,  1.828165, -1.827332 )    15.54392999
  Sum of centres and spreads ( -0.100132, -0.100060,  0.100978 )    44.50161608
 
     23    -0.128E-01     2.2417888391       44.5016193982       0.18  <-- CONV
        O_D=      2.9953875 O_OD=     33.6540611 O_TOT=     44.5016194 <-- SPRD
 Delta: O_D= -0.7250292E-02 O_OD= -0.5515228E-02 O_TOT= -0.1276552E-01 <-- DLTA
 ------------------------------------------------------------------------------
 Cycle:     24
  WF centre and spread    1  ( -1.873600, -1.896675, -1.842102 )     9.65022555
  WF centre and spread    2  ( -1.896663,  1.842138,  1.873643 )     9.65007489
  WF centre and spread    3  (  1.842151, -1.873598,  1.896715 )     9.65014222
  WF centre and spread    4  (  1.828856,  1.828395, -1.827524 )    15.53944936
  Sum of centres and spreads ( -0.099257, -0.099740,  0.100732 )    44.48989202
 
     24    -0.117E-01     1.9605085913       44.4898953377       0.19  <-- CONV
        O_D=      2.9901226 O_OD=     33.6476019 O_TOT=     44.4898953 <-- SPRD
 Delta: O_D= -0.5264901E-02 O_OD= -0.6459159E-02 O_TOT= -0.1172406E-01 <-- DLTA
 ------------------------------------------------------------------------------
 Cycle:     25
  WF centre and spread    1  ( -1.873598, -1.896666, -1.842115 )     9.64973446
  WF centre and spread    2  ( -1.896659,  1.842152,  1.873638 )     9.64958580
  WF centre and spread    3  (  1.842161, -1.873591,  1.896708 )     9.64965286
  WF centre and spread    4  (  1.829230,  1.829319, -1.828014 )    15.53392250
  Sum of centres and spreads ( -0.098866, -0.098786,  0.100217 )    44.48289562
 
     25    -0.700E-02     1.8395333983       44.4828989420       0.20  <-- CONV
        O_D=      2.9844506 O_OD=     33.6462775 O_TOT=     44.4828989 <-- SPRD
 Delta: O_D= -0.5671971E-02 O_OD= -0.1324424E-02 O_TOT= -0.6996396E-02 <-- DLTA
 ------------------------------------------------------------------------------
 Cycle:     26
  WF centre and spread    1  ( -1.873582, -1.896646, -1.842162 )     9.64794409
  WF centre and spread    2  ( -1.896640,  1.842188,  1.873614 )     9.64779940
  WF centre and spread    3  (  1.842196, -1.873575,  1.896680 )     9.64787114
  WF centre and spread    4  (  1.831616,  1.831758, -1.830602 )    15.52945211
  Sum of centres and spreads ( -0.096410, -0.096274,  0.097530 )    44.47306673
 
     26    -0.983E-02     1.4509235076       44.4730700529       0.21  <-- CONV
        O_D=      2.9794566 O_OD=     33.6414426 O_TOT=     44.4730701 <-- SPRD
 Delta: O_D= -0.4993979E-02 O_OD= -0.4834910E-02 O_TOT= -0.9828889E-02 <-- DLTA
 ------------------------------------------------------------------------------
 Cycle:     27
  WF centre and spread    1  ( -1.873580, -1.896642, -1.842217 )     9.64544934
  WF centre and spread    2  ( -1.896633,  1.842213,  1.873584 )     9.64529652
  WF centre and spread    3  (  1.842222, -1.873577,  1.896645 )     9.64537431
  WF centre and spread    4  (  1.833607,  1.833162, -1.834660 )    15.52908964
  Sum of centres and spreads ( -0.094384, -0.094844,  0.093353 )    44.46520981
 
     27    -0.786E-02     1.4259859092       44.4652131350       0.22  <-- CONV
        O_D=      2.9783588 O_OD=     33.6346835 O_TOT=     44.4652131 <-- SPRD
 Delta: O_D= -0.1097832E-02 O_OD= -0.6759086E-02 O_TOT= -0.7856918E-02 <-- DLTA
 ------------------------------------------------------------------------------
 Cycle:     28
  WF centre and spread    1  ( -1.873598, -1.896639, -1.842239 )     9.64253059
  WF centre and spread    2  ( -1.896644,  1.842236,  1.873591 )     9.64237875
  WF centre and spread    3  (  1.842231, -1.873581,  1.896645 )     9.64245160
  WF centre and spread    4  (  1.834653,  1.835812, -1.836005 )    15.53124355
  Sum of centres and spreads ( -0.093358, -0.092171,  0.091992 )    44.45860449
 
     28    -0.661E-02     1.5562639355       44.4586078186       0.22  <-- CONV
        O_D=      2.9796576 O_OD=     33.6267794 O_TOT=     44.4586078 <-- SPRD
 Delta: O_D=  0.1298800E-02 O_OD= -0.7904117E-02 O_TOT= -0.6605316E-02 <-- DLTA
 ------------------------------------------------------------------------------
 Cycle:     29
  WF centre and spread    1  ( -1.873638, -1.896660, -1.842237 )     9.63863087
  WF centre and spread    2  ( -1.896675,  1.842239,  1.873627 )     9.63848032
  WF centre and spread    3  (  1.842223, -1.873611,  1.896672 )     9.63854445
  WF centre and spread    4  (  1.834698,  1.837155, -1.835089 )    15.53575963
  Sum of centres and spreads ( -0.093393, -0.090876,  0.092972 )    44.45141526
 
     29    -0.719E-02     1.7632510036       44.4514185847       0.23  <-- CONV
        O_D=      2.9830504 O_OD=     33.6161973 O_TOT=     44.4514186 <-- SPRD
 Delta: O_D=  0.3392837E-02 O_OD= -0.1058207E-01 O_TOT= -0.7189234E-02 <-- DLTA
 ------------------------------------------------------------------------------
 Cycle:     30
  WF centre and spread    1  ( -1.873699, -1.896726, -1.842237 )     9.63374325
  WF centre and spread    2  ( -1.896724,  1.842203,  1.873668 )     9.63358094
  WF centre and spread    3  (  1.842202, -1.873686,  1.896702 )     9.63364645
  WF centre and spread    4  (  1.833943,  1.834814, -1.837208 )    15.54229030
  Sum of centres and spreads ( -0.094278, -0.093395,  0.090925 )    44.44326094
 
     30    -0.815E-02     2.0885642537       44.4432642677       0.24  <-- CONV
        O_D=      2.9881795 O_OD=     33.6029140 O_TOT=     44.4432643 <-- SPRD
 Delta: O_D=  0.5129017E-02 O_OD= -0.1328333E-01 O_TOT= -0.8154317E-02 <-- DLTA
 ------------------------------------------------------------------------------
 Cycle:     31
  WF centre and spread    1  ( -1.873704, -1.896729, -1.842217 )     9.63346622
  WF centre and spread    2  ( -1.896729,  1.842200,  1.873689 )     9.63331246
  WF centre and spread    3  (  1.842199, -1.873690,  1.896722 )     9.63337343
  WF centre and spread    4  (  1.834178,  1.835338, -1.835016 )    15.53479464
  Sum of centres and spreads ( -0.094056, -0.092880,  0.093178 )    44.43494675
 
     31    -0.831E-02     2.6173355717       44.4349500790       0.25  <-- CONV
        O_D=      2.9806212 O_OD=     33.6021580 O_TOT=     44.4349501 <-- SPRD
 Delta: O_D= -0.7558228E-02 O_OD= -0.7559606E-03 O_TOT= -0.8314189E-02 <-- DLTA
 ------------------------------------------------------------------------------
 Cycle:     32
  WF centre and spread    1  ( -1.873720, -1.896753, -1.842200 )     9.63283643
  WF centre and spread    2  ( -1.896744,  1.842177,  1.873708 )     9.63268277
  WF centre and spread    3  (  1.842186, -1.873715,  1.896740 )     9.63274480
  WF centre and spread    4  (  1.833250,  1.833583, -1.835089 )    15.52959856
  Sum of centres and spreads ( -0.095028, -0.094707,  0.093159 )    44.42786256
 
     32    -0.708E-02     2.0286778900       44.4278658869       0.25  <-- CONV
        O_D=      2.9752726 O_OD=     33.6004224 O_TOT=     44.4278659 <-- SPRD
 Delta: O_D= -0.5348581E-02 O_OD= -0.1735611E-02 O_TOT= -0.7084192E-02 <-- DLTA
 ------------------------------------------------------------------------------
 Cycle:     33
  WF centre and spread    1  ( -1.873739, -1.896779, -1.842170 )     9.63179970
  WF centre and spread    2  ( -1.896762,  1.842155,  1.873743 )     9.63164905
  WF centre and spread    3  (  1.842173, -1.873743,  1.896773 )     9.63171012
  WF centre and spread    4  (  1.833497,  1.832244, -1.833750 )    15.52717157
  Sum of centres and spreads ( -0.094831, -0.096123,  0.094595 )    44.42233045
 
     33    -0.553E-02     1.5994430012       44.4223337751       0.26  <-- CONV
        O_D=      2.9725742 O_OD=     33.5975887 O_TOT=     44.4223338 <-- SPRD
 Delta: O_D= -0.2698446E-02 O_OD= -0.2833665E-02 O_TOT= -0.5532112E-02 <-- DLTA
 ------------------------------------------------------------------------------
 Cycle:     34
  WF centre and spread    1  ( -1.873758, -1.896790, -1.842152 )     9.63105935
  WF centre and spread    2  ( -1.896779,  1.842146,  1.873765 )     9.63091124
  WF centre and spread    3  (  1.842158, -1.873755,  1.896794 )     9.63096853
  WF centre and spread    4  (  1.831901,  1.832433, -1.832881 )    15.52651279
  Sum of centres and spreads ( -0.096478, -0.095966,  0.095526 )    44.41945190
 
     34    -0.288E-02     1.9973952987       44.4194552288       0.27  <-- CONV
        O_D=      2.9717219 O_OD=     33.5955625 O_TOT=     44.4194552 <-- SPRD
 Delta: O_D= -0.8522653E-03 O_OD= -0.2026281E-02 O_TOT= -0.2878546E-02 <-- DLTA
 ------------------------------------------------------------------------------
 Cycle:     35
  WF centre and spread    1  ( -1.873786, -1.896816, -1.842122 )     9.62959288
  WF centre and spread    2  ( -1.896803,  1.842126,  1.873804 )     9.62944332
  WF centre and spread    3  (  1.842140, -1.873784,  1.896829 )     9.62950014
  WF centre and spread    4  (  1.830841,  1.831444, -1.831463 )    15.52658549
  Sum of centres and spreads ( -0.097609, -0.097030,  0.097047 )    44.41512182
 
     35    -0.433E-02     1.7155550560       44.4151251471       0.28  <-- CONV
        O_D=      2.9714051 O_OD=     33.5915493 O_TOT=     44.4151251 <-- SPRD
 Delta: O_D= -0.3168784E-03 O_OD= -0.4013203E-02 O_TOT= -0.4330082E-02 <-- DLTA
 ------------------------------------------------------------------------------
 Cycle:     36
  WF centre and spread    1  ( -1.873813, -1.896849, -1.842090 )     9.62770841
  WF centre and spread    2  ( -1.896826,  1.842101,  1.873846 )     9.62755506
  WF centre and spread    3  (  1.842127, -1.873821,  1.896868 )     9.62761433
  WF centre and spread    4  (  1.831004,  1.829521, -1.829599 )    15.52771650
  Sum of centres and spreads ( -0.097508, -0.099048,  0.099026 )    44.41059430
 
     36    -0.453E-02     1.7520664434       44.4105976215       0.29  <-- CONV
        O_D=      2.9720299 O_OD=     33.5863969 O_TOT=     44.4105976 <-- SPRD
 Delta: O_D=  0.6248592E-03 O_OD= -0.5152385E-02 O_TOT= -0.4527526E-02 <-- DLTA
 ------------------------------------------------------------------------------
 Cycle:     37
  WF centre and spread    1  ( -1.873819, -1.896845, -1.842096 )     9.62751028
  WF centre and spread    2  ( -1.896832,  1.842108,  1.873843 )     9.62735626
  WF centre and spread    3  (  1.842123, -1.873817,  1.896865 )     9.62741274
  WF centre and spread    4  (  1.829832,  1.830438, -1.830406 )    15.52637861
  Sum of centres and spreads ( -0.098696, -0.098116,  0.098206 )    44.40865789
 
     37    -0.194E-02     1.4972990781       44.4086612143       0.29  <-- CONV
        O_D=      2.9706319 O_OD=     33.5858585 O_TOT=     44.4086612 <-- SPRD
 Delta: O_D= -0.1397978E-02 O_OD= -0.5384292E-03 O_TOT= -0.1936407E-02 <-- DLTA
 ------------------------------------------------------------------------------
 Cycle:     38
  WF centre and spread    1  ( -1.873817, -1.896843, -1.842102 )     9.62700643
  WF centre and spread    2  ( -1.896830,  1.842115,  1.873843 )     9.62685182
  WF centre and spread    3  (  1.842129, -1.873816,  1.896863 )     9.62690921
  WF centre and spread    4  (  1.830766,  1.830902, -1.830813 )    15.52572862
  Sum of centres and spreads ( -0.097752, -0.097642,  0.097791 )    44.40649609
 
     38    -0.216E-02     1.3556650290       44.4064994131       0.30  <-- CONV
        O_D=      2.9698303 O_OD=     33.5844983 O_TOT=     44.4064994 <-- SPRD
 Delta: O_D= -0.8016722E-03 O_OD= -0.1360129E-02 O_TOT= -0.2161801E-02 <-- DLTA
 ------------------------------------------------------------------------------
 Cycle:     39
  WF centre and spread    1  ( -1.873815, -1.896838, -1.842111 )     9.62588029
  WF centre and spread    2  ( -1.896826,  1.842129,  1.873845 )     9.62572763
  WF centre and spread    3  (  1.842143, -1.873812,  1.896863 )     9.62578603
  WF centre and spread    4  (  1.831957,  1.832185, -1.831113 )    15.52562327
  Sum of centres and spreads ( -0.096541, -0.096336,  0.097484 )    44.40301722
 
     39    -0.348E-02     1.6676680149       44.4030205453       0.31  <-- CONV
        O_D=      2.9693956 O_OD=     33.5814541 O_TOT=     44.4030205 <-- SPRD
 Delta: O_D= -0.4346713E-03 O_OD= -0.3044197E-02 O_TOT= -0.3478868E-02 <-- DLTA
 ------------------------------------------------------------------------------
 Cycle:     40
  WF centre and spread    1  ( -1.873817, -1.896836, -1.842128 )     9.62437120
  WF centre and spread    2  ( -1.896824,  1.842143,  1.873843 )     9.62421763
  WF centre and spread    3  (  1.842156, -1.873814,  1.896859 )     9.62427805
  WF centre and spread    4  (  1.832907,  1.833093, -1.832644 )    15.52632927
  Sum of centres and spreads ( -0.095578, -0.095414,  0.095931 )    44.39919616
 
     40    -0.382E-02     1.8788948396       44.3991994852       0.32  <-- CONV
        O_D=      2.9696639 O_OD=     33.5773648 O_TOT=     44.3991995 <-- SPRD
 Delta: O_D=  0.2682877E-03 O_OD= -0.4089348E-02 O_TOT= -0.3821060E-02 <-- DLTA
 ------------------------------------------------------------------------------
 Cycle:     41
  WF centre and spread    1  ( -1.873821, -1.896839, -1.842141 )     9.62249157
  WF centre and spread    2  ( -1.896824,  1.842153,  1.873847 )     9.62233717
  WF centre and spread    3  (  1.842169, -1.873821,  1.896859 )     9.62240030
  WF centre and spread    4  (  1.834699,  1.834348, -1.833611 )    15.52821369
  Sum of centres and spreads ( -0.093777, -0.094159,  0.094955 )    44.39544273
 
     41    -0.375E-02     1.5753590257       44.3954460620       0.33  <-- CONV
        O_D=      2.9710105 O_OD=     33.5722647 O_TOT=     44.3954461 <-- SPRD
 Delta: O_D=  0.1346646E-02 O_OD= -0.5100069E-02 O_TOT= -0.3753423E-02 <-- DLTA
 ------------------------------------------------------------------------------
 Cycle:     42
  WF centre and spread    1  ( -1.873829, -1.896844, -1.842150 )     9.62113680
  WF centre and spread    2  ( -1.896830,  1.842157,  1.873851 )     9.62098172
  WF centre and spread    3  (  1.842172, -1.873829,  1.896860 )     9.62104594
  WF centre and spread    4  (  1.835253,  1.835253, -1.834817 )    15.52978496
  Sum of centres and spreads ( -0.093235, -0.093263,  0.093743 )    44.39294942
 
     42    -0.249E-02     2.0499798575       44.3929527492       0.33  <-- CONV
        O_D=      2.9721965 O_OD=     33.5685855 O_TOT=     44.3929527 <-- SPRD
 Delta: O_D=  0.1185941E-02 O_OD= -0.3679254E-02 O_TOT= -0.2493313E-02 <-- DLTA
 ------------------------------------------------------------------------------
 Cycle:     43
  WF centre and spread    1  ( -1.873835, -1.896852, -1.842149 )     9.62098600
  WF centre and spread    2  ( -1.896836,  1.842151,  1.873853 )     9.62082952
  WF centre and spread    3  (  1.842167, -1.873836,  1.896862 )     9.62089442
  WF centre and spread    4  (  1.834961,  1.834354, -1.835310 )    15.52820951
  Sum of centres and spreads ( -0.093544, -0.094183,  0.093257 )    44.39091946
 
     43    -0.203E-02     1.8296173033       44.3909227858       0.34  <-- CONV
        O_D=      2.9705802 O_OD=     33.5681717 O_TOT=     44.3909228 <-- SPRD
 Delta: O_D= -0.1616225E-02 O_OD= -0.4137388E-03 O_TOT= -0.2029963E-02 <-- DLTA
 ------------------------------------------------------------------------------
 Cycle:     44
  WF centre and spread    1  ( -1.873853, -1.896862, -1.842136 )     9.62054911
  WF centre and spread    2  ( -1.896853,  1.842142,  1.873868 )     9.62039450
  WF centre and spread    3  (  1.842151, -1.873848,  1.896876 )     9.62045605
  WF centre and spread    4  (  1.833408,  1.834094, -1.834608 )    15.52686097
  Sum of centres and spreads ( -0.095148, -0.094474,  0.094000 )    44.38826063
 
     44    -0.266E-02     1.6911115182       44.3882639624       0.35  <-- CONV
        O_D=      2.9691178 O_OD=     33.5669754 O_TOT=     44.3882640 <-- SPRD
 Delta: O_D= -0.1462480E-02 O_OD= -0.1196343E-02 O_TOT= -0.2658823E-02 <-- DLTA
 ------------------------------------------------------------------------------
 Cycle:     45
  WF centre and spread    1  ( -1.873876, -1.896879, -1.842112 )     9.61979710
  WF centre and spread    2  ( -1.896875,  1.842127,  1.873896 )     9.61964604
  WF centre and spread    3  (  1.842133, -1.873866,  1.896903 )     9.61970384
  WF centre and spread    4  (  1.832437,  1.833749, -1.832158 )    15.52606373
  Sum of centres and spreads ( -0.096181, -0.094869,  0.096528 )    44.38521071
 
     45    -0.305E-02     1.7336725836       44.3852140419       0.36  <-- CONV
        O_D=      2.9681237 O_OD=     33.5649195 O_TOT=     44.3852140 <-- SPRD
 Delta: O_D= -0.9940442E-03 O_OD= -0.2055876E-02 O_TOT= -0.3049920E-02 <-- DLTA
 ------------------------------------------------------------------------------
 Cycle:     46
  WF centre and spread    1  ( -1.873905, -1.896911, -1.842091 )     9.61867518
  WF centre and spread    2  ( -1.896902,  1.842099,  1.873923 )     9.61852278
  WF centre and spread    3  (  1.842110, -1.873900,  1.896928 )     9.61858042
  WF centre and spread    4  (  1.830659,  1.831786, -1.831611 )    15.52589023
  Sum of centres and spreads ( -0.098037, -0.096926,  0.097150 )    44.38166860
 
     46    -0.354E-02     1.8243678169       44.3816719287       0.36  <-- CONV
        O_D=      2.9676525 O_OD=     33.5618486 O_TOT=     44.3816719 <-- SPRD
 Delta: O_D= -0.4712637E-03 O_OD= -0.3070849E-02 O_TOT= -0.3542113E-02 <-- DLTA
 ------------------------------------------------------------------------------
 Cycle:     47
  WF centre and spread    1  ( -1.873917, -1.896930, -1.842077 )     9.61792981
  WF centre and spread    2  ( -1.896912,  1.842083,  1.873941 )     9.61777800
  WF centre and spread    3  (  1.842103, -1.873921,  1.896944 )     9.61783697
  WF centre and spread    4  (  1.830654,  1.830448, -1.830764 )    15.52615624
  Sum of centres and spreads ( -0.098073, -0.098320,  0.098045 )    44.37970102
 
     47    -0.197E-02     1.8348019491       44.3797043443       0.37  <-- CONV
        O_D=      2.9677193 O_OD=     33.5598142 O_TOT=     44.3797043 <-- SPRD
 Delta: O_D=  0.6687457E-04 O_OD= -0.2034459E-02 O_TOT= -0.1967584E-02 <-- DLTA
 ------------------------------------------------------------------------------
 Cycle:     48
  WF centre and spread    1  ( -1.873924, -1.896941, -1.842071 )     9.61739316
  WF centre and spread    2  ( -1.896918,  1.842075,  1.873951 )     9.61724083
  WF centre and spread    3  (  1.842100, -1.873932,  1.896953 )     9.61730084
  WF centre and spread    4  (  1.830642,  1.829673, -1.830336 )    15.52665234
  Sum of centres and spreads ( -0.098100, -0.099125,  0.098498 )    44.37858717
 
     48    -0.111E-02     1.4094524672       44.3785904990       0.38  <-- CONV
        O_D=      2.9680689 O_OD=     33.5583508 O_TOT=     44.3785905 <-- SPRD
 Delta: O_D=  0.3495508E-03 O_OD= -0.1463396E-02 O_TOT= -0.1113845E-02 <-- DLTA
 ------------------------------------------------------------------------------
 Cycle:     49
  WF centre and spread    1  ( -1.873926, -1.896938, -1.842072 )     9.61729832
  WF centre and spread    2  ( -1.896919,  1.842078,  1.873951 )     9.61714645
  WF centre and spread    3  (  1.842100, -1.873930,  1.896953 )     9.61720508
  WF centre and spread    4  (  1.830565,  1.830229, -1.830663 )    15.52615686
  Sum of centres and spreads ( -0.098180, -0.098561,  0.098168 )    44.37780670
 
     49    -0.780E-03     1.3673062434       44.3778100249       0.39  <-- CONV
        O_D=      2.9675438 O_OD=     33.5580954 O_TOT=     44.3778100 <-- SPRD
 Delta: O_D= -0.5250721E-03 O_OD= -0.2554020E-03 O_TOT= -0.7804741E-03 <-- DLTA
 ------------------------------------------------------------------------------
 Cycle:     50
  WF centre and spread    1  ( -1.873927, -1.896934, -1.842077 )     9.61689327
  WF centre and spread    2  ( -1.896921,  1.842087,  1.873950 )     9.61674072
  WF centre and spread    3  (  1.842102, -1.873926,  1.896952 )     9.61679793
  WF centre and spread    4  (  1.830754,  1.831341, -1.831264 )    15.52576002
  Sum of centres and spreads ( -0.097992, -0.097432,  0.097561 )    44.37619194
 
     50    -0.161E-02     1.3656138930       44.3761952626       0.40  <-- CONV
        O_D=      2.9670249 O_OD=     33.5569996 O_TOT=     44.3761953 <-- SPRD
 Delta: O_D= -0.5189384E-03 O_OD= -0.1095824E-02 O_TOT= -0.1614762E-02 <-- DLTA
 ------------------------------------------------------------------------------
 Cycle:     51
  WF centre and spread    1  ( -1.873928, -1.896928, -1.842080 )     9.61622595
  WF centre and spread    2  ( -1.896920,  1.842098,  1.873953 )     9.61607411
  WF centre and spread    3  (  1.842107, -1.873922,  1.896953 )     9.61613037
  WF centre and spread    4  (  1.831154,  1.832854, -1.831256 )    15.52558601
  Sum of centres and spreads ( -0.097588, -0.095898,  0.097569 )    44.37401644
 
     51    -0.218E-02     1.8946934167       44.3740197623       0.40  <-- CONV
        O_D=      2.9666558 O_OD=     33.5551931 O_TOT=     44.3740198 <-- SPRD
 Delta: O_D= -0.3690510E-03 O_OD= -0.1806449E-02 O_TOT= -0.2175500E-02 <-- DLTA
 ------------------------------------------------------------------------------
 Cycle:     52
  WF centre and spread    1  ( -1.873926, -1.896929, -1.842085 )     9.61552704
  WF centre and spread    2  ( -1.896916,  1.842102,  1.873955 )     9.61537450
  WF centre and spread    3  (  1.842116, -1.873924,  1.896953 )     9.61543285
  WF centre and spread    4  (  1.832873,  1.832946, -1.831767 )    15.52574953
  Sum of centres and spreads ( -0.095853, -0.095805,  0.097055 )    44.37208393
 
     52    -0.193E-02     1.9566909561       44.3720872549       0.41  <-- CONV
        O_D=      2.9666165 O_OD=     33.5533000 O_TOT=     44.3720873 <-- SPRD
 Delta: O_D= -0.3934394E-04 O_OD= -0.1893163E-02 O_TOT= -0.1932507E-02 <-- DLTA
 ------------------------------------------------------------------------------
 Cycle:     53
  WF centre and spread    1  ( -1.873929, -1.896932, -1.842091 )     9.61493384
  WF centre and spread    2  ( -1.896918,  1.842104,  1.873954 )     9.61477912
  WF centre and spread    3  (  1.842118, -1.873928,  1.896952 )     9.61483917
  WF centre and spread    4  (  1.832666,  1.832935, -1.832946 )    15.52617036
  Sum of centres and spreads ( -0.096063, -0.095820,  0.095868 )    44.37072250
 
     53    -0.136E-02     1.7523703744       44.3707258271       0.42  <-- CONV
        O_D=      2.9668690 O_OD=     33.5516860 O_TOT=     44.3707258 <-- SPRD
 Delta: O_D=  0.2525441E-03 O_OD= -0.1613972E-02 O_TOT= -0.1361428E-02 <-- DLTA
 ------------------------------------------------------------------------------
 Cycle:     54
  WF centre and spread    1  ( -1.873935, -1.896940, -1.842098 )     9.61330160
  WF centre and spread    2  ( -1.896921,  1.842106,  1.873962 )     9.61314466
  WF centre and spread    3  (  1.842126, -1.873940,  1.896957 )     9.61320978
  WF centre and spread    4  (  1.834043,  1.833594, -1.833929 )    15.52810397
  Sum of centres and spreads ( -0.094688, -0.095181,  0.094892 )    44.36776001
 
     54    -0.296E-02     1.5147610222       44.3677633416       0.43  <-- CONV
        O_D=      2.9683457 O_OD=     33.5472468 O_TOT=     44.3677633 <-- SPRD
 Delta: O_D=  0.1476700E-02 O_OD= -0.4439186E-02 O_TOT= -0.2962485E-02 <-- DLTA
 ------------------------------------------------------------------------------
 Cycle:     55
  WF centre and spread    1  ( -1.873937, -1.896941, -1.842095 )     9.61323246
  WF centre and spread    2  ( -1.896923,  1.842105,  1.873965 )     9.61307692
  WF centre and spread    3  (  1.842125, -1.873941,  1.896959 )     9.61314089
  WF centre and spread    4  (  1.834128,  1.833553, -1.833551 )    15.52734268
  Sum of centres and spreads ( -0.094608, -0.095223,  0.095278 )    44.36679295
 
     55    -0.967E-03     1.9229001889       44.3667962732       0.44  <-- CONV
        O_D=      2.9675672 O_OD=     33.5470583 O_TOT=     44.3667963 <-- SPRD
 Delta: O_D= -0.7785334E-03 O_OD= -0.1885350E-03 O_TOT= -0.9670684E-03 <-- DLTA
 ------------------------------------------------------------------------------
 Cycle:     56
  WF centre and spread    1  ( -1.873947, -1.896944, -1.842089 )     9.61294702
  WF centre and spread    2  ( -1.896932,  1.842104,  1.873973 )     9.61279443
  WF centre and spread    3  (  1.842117, -1.873945,  1.896967 )     9.61285570
  WF centre and spread    4  (  1.833059,  1.833852, -1.832764 )    15.52641095
  Sum of centres and spreads ( -0.095704, -0.094934,  0.096087 )    44.36500811
 
     56    -0.178E-02     1.7289808019       44.3650114385       0.44  <-- CONV
        O_D=      2.9665628 O_OD=     33.5462778 O_TOT=     44.3650114 <-- SPRD
 Delta: O_D= -0.1004375E-02 O_OD= -0.7804598E-03 O_TOT= -0.1784835E-02 <-- DLTA
 ------------------------------------------------------------------------------
 Cycle:     57
  WF centre and spread    1  ( -1.873953, -1.896950, -1.842086 )     9.61272338
  WF centre and spread    2  ( -1.896938,  1.842100,  1.873978 )     9.61257103
  WF centre and spread    3  (  1.842112, -1.873950,  1.896971 )     9.61263224
  WF centre and spread    4  (  1.832992,  1.833495, -1.832731 )    15.52606513
  Sum of centres and spreads ( -0.095786, -0.095305,  0.096132 )    44.36399179
 
     57    -0.102E-02     1.9965143326       44.3639951179       0.45  <-- CONV
        O_D=      2.9661586 O_OD=     33.5456657 O_TOT=     44.3639951 <-- SPRD
 Delta: O_D= -0.4041805E-03 O_OD= -0.6121401E-03 O_TOT= -0.1016321E-02 <-- DLTA
 ------------------------------------------------------------------------------
 Cycle:     58
  WF centre and spread    1  ( -1.873963, -1.896958, -1.842082 )     9.61233898
  WF centre and spread    2  ( -1.896948,  1.842093,  1.873984 )     9.61218674
  WF centre and spread    3  (  1.842105, -1.873959,  1.896977 )     9.61224720
  WF centre and spread    4  (  1.832004,  1.833087, -1.832843 )    15.52588478
  Sum of centres and spreads ( -0.096803, -0.095737,  0.096036 )    44.36265769
 
     58    -0.133E-02     1.8583946567       44.3626610166       0.46  <-- CONV
        O_D=      2.9658796 O_OD=     33.5446106 O_TOT=     44.3626610 <-- SPRD
 Delta: O_D= -0.2790399E-03 O_OD= -0.1055061E-02 O_TOT= -0.1334101E-02 <-- DLTA
 ------------------------------------------------------------------------------
 Cycle:     59
  WF centre and spread    1  ( -1.873975, -1.896971, -1.842074 )     9.61174768
  WF centre and spread    2  ( -1.896959,  1.842082,  1.873996 )     9.61159524
  WF centre and spread    3  (  1.842097, -1.873974,  1.896987 )     9.61165546
  WF centre and spread    4  (  1.831611,  1.832000, -1.832113 )    15.52589403
  Sum of centres and spreads ( -0.097226, -0.096863,  0.096796 )    44.36089241
 
     59    -0.177E-02     1.9428150170       44.3608957344       0.47  <-- CONV
        O_D=      2.9657365 O_OD=     33.5429884 O_TOT=     44.3608957 <-- SPRD
 Delta: O_D= -0.1430479E-03 O_OD= -0.1622234E-02 O_TOT= -0.1765282E-02 <-- DLTA
 ------------------------------------------------------------------------------
 Cycle:     60
  WF centre and spread    1  ( -1.873984, -1.896980, -1.842068 )     9.61126645
  WF centre and spread    2  ( -1.896966,  1.842076,  1.874005 )     9.61111457
  WF centre and spread    3  (  1.842092, -1.873984,  1.896996 )     9.61117500
  WF centre and spread    4  (  1.830974,  1.831761, -1.831465 )    15.52616821
  Sum of centres and spreads ( -0.097884, -0.097127,  0.097468 )    44.35972423
 
     60    -0.117E-02     1.5479846131       44.3597275545       0.48  <-- CONV
        O_D=      2.9658847 O_OD=     33.5416720 O_TOT=     44.3597276 <-- SPRD
 Delta: O_D=  0.1481409E-03 O_OD= -0.1316321E-02 O_TOT= -0.1168180E-02 <-- DLTA
 ------------------------------------------------------------------------------
 Cycle:     61
  WF centre and spread    1  ( -1.873983, -1.896981, -1.842069 )     9.61122862
  WF centre and spread    2  ( -1.896965,  1.842075,  1.874005 )     9.61107661
  WF centre and spread    3  (  1.842093, -1.873985,  1.896996 )     9.61113747
  WF centre and spread    4  (  1.831410,  1.831362, -1.831724 )    15.52571268
  Sum of centres and spreads ( -0.097445, -0.097529,  0.097208 )    44.35915538
 
     61    -0.569E-03     2.0299963812       44.3591587085       0.48  <-- CONV
        O_D=      2.9654178 O_OD=     33.5415701 O_TOT=     44.3591587 <-- SPRD
 Delta: O_D= -0.4669202E-03 O_OD= -0.1019258E-03 O_TOT= -0.5688461E-03 <-- DLTA
 ------------------------------------------------------------------------------
 Cycle:     62
  WF centre and spread    1  ( -1.873983, -1.896983, -1.842068 )     9.61107468
  WF centre and spread    2  ( -1.896965,  1.842075,  1.874007 )     9.61092292
  WF centre and spread    3  (  1.842094, -1.873986,  1.896997 )     9.61098410
  WF centre and spread    4  (  1.831787,  1.831462, -1.831811 )    15.52554073
  Sum of centres and spreads ( -0.097067, -0.097432,  0.097125 )    44.35852243
 
     62    -0.633E-03     1.2752745175       44.3585257530       0.49  <-- CONV
        O_D=      2.9652005 O_OD=     33.5411545 O_TOT=     44.3585258 <-- SPRD
 Delta: O_D= -0.2172996E-03 O_OD= -0.4156558E-03 O_TOT= -0.6329554E-03 <-- DLTA
 ------------------------------------------------------------------------------
 Cycle:     63
  WF centre and spread    1  ( -1.873985, -1.896983, -1.842067 )     9.61088331
  WF centre and spread    2  ( -1.896966,  1.842076,  1.874010 )     9.61073200
  WF centre and spread    3  (  1.842094, -1.873987,  1.897000 )     9.61079257
  WF centre and spread    4  (  1.831370,  1.831905, -1.831652 )    15.52550364
  Sum of centres and spreads ( -0.097488, -0.096990,  0.097290 )    44.35791151
 
     63    -0.611E-03     1.5545200760       44.3579148390       0.50  <-- CONV
        O_D=      2.9651090 O_OD=     33.5406350 O_TOT=     44.3579148 <-- SPRD
 Delta: O_D= -0.9149100E-04 O_OD= -0.5194230E-03 O_TOT= -0.6109140E-03 <-- DLTA
 ------------------------------------------------------------------------------
 Cycle:     64
  WF centre and spread    1  ( -1.873986, -1.896987, -1.842065 )     9.61043157
  WF centre and spread    2  ( -1.896967,  1.842074,  1.874015 )     9.61027945
  WF centre and spread    3  (  1.842096, -1.873992,  1.897004 )     9.61034041
  WF centre and spread    4  (  1.832331,  1.831574, -1.831424 )    15.52568105
  Sum of centres and spreads ( -0.096527, -0.097331,  0.097530 )    44.35673248
 
     64    -0.118E-02     1.5922015010       44.3567358021       0.51  <-- CONV
        O_D=      2.9651571 O_OD=     33.5394078 O_TOT=     44.3567358 <-- SPRD
 Delta: O_D=  0.4816970E-04 O_OD= -0.1227207E-02 O_TOT= -0.1179037E-02 <-- DLTA
 ------------------------------------------------------------------------------
 Cycle:     65
  WF centre and spread    1  ( -1.873992, -1.896992, -1.842065 )     9.60973165
  WF centre and spread    2  ( -1.896972,  1.842074,  1.874021 )     9.60957835
  WF centre and spread    3  (  1.842096, -1.873998,  1.897009 )     9.60963915
  WF centre and spread    4  (  1.832367,  1.832072, -1.831860 )    15.52591606
  Sum of centres and spreads ( -0.096500, -0.096844,  0.097105 )    44.35486520
 
     65    -0.187E-02     1.9528945015       44.3548685284       0.52  <-- CONV
        O_D=      2.9651923 O_OD=     33.5375054 O_TOT=     44.3548685 <-- SPRD
 Delta: O_D=  0.3520217E-04 O_OD= -0.1902476E-02 O_TOT= -0.1867274E-02 <-- DLTA
 ------------------------------------------------------------------------------
 Cycle:     66
  WF centre and spread    1  ( -1.873995, -1.896996, -1.842065 )     9.60933552
  WF centre and spread    2  ( -1.896974,  1.842072,  1.874024 )     9.60918073
  WF centre and spread    3  (  1.842096, -1.874003,  1.897011 )     9.60924242
  WF centre and spread    4  (  1.832639,  1.831775, -1.832319 )    15.52611583
  Sum of centres and spreads ( -0.096234, -0.097151,  0.096650 )    44.35387451
 
     66    -0.991E-03     1.9347957293       44.3538778330       0.52  <-- CONV
        O_D=      2.9652797 O_OD=     33.5364273 O_TOT=     44.3538778 <-- SPRD
 Delta: O_D=  0.8733902E-04 O_OD= -0.1078034E-02 O_TOT= -0.9906954E-03 <-- DLTA
 ------------------------------------------------------------------------------
 Cycle:     67
  WF centre and spread    1  ( -1.873996, -1.896995, -1.842064 )     9.60928789
  WF centre and spread    2  ( -1.896975,  1.842073,  1.874025 )     9.60913416
  WF centre and spread    3  (  1.842095, -1.874002,  1.897012 )     9.60919507
  WF centre and spread    4  (  1.832440,  1.832065, -1.832061 )    15.52588484
  Sum of centres and spreads ( -0.096436, -0.096859,  0.096911 )    44.35350196
 
     67    -0.373E-03     1.4845526868       44.3535052819       0.53  <-- CONV
        O_D=      2.9650366 O_OD=     33.5362978 O_TOT=     44.3535053 <-- SPRD
 Delta: O_D= -0.2430761E-03 O_OD= -0.1294750E-03 O_TOT= -0.3725511E-03 <-- DLTA
 ------------------------------------------------------------------------------
 Cycle:     68
  WF centre and spread    1  ( -1.873999, -1.896995, -1.842063 )     9.60910440
  WF centre and spread    2  ( -1.896978,  1.842074,  1.874028 )     9.60895214
  WF centre and spread    3  (  1.842094, -1.874003,  1.897015 )     9.60901256
  WF centre and spread    4  (  1.832556,  1.832263, -1.831724 )    15.52570714
  Sum of centres and spreads ( -0.096327, -0.096661,  0.097256 )    44.35277624
 
     68    -0.726E-03     1.4572602125       44.3527795654       0.54  <-- CONV
        O_D=      2.9648103 O_OD=     33.5357984 O_TOT=     44.3527796 <-- SPRD
 Delta: O_D= -0.2262689E-03 O_OD= -0.4994476E-03 O_TOT= -0.7257165E-03 <-- DLTA
 ------------------------------------------------------------------------------
 Cycle:     69
  WF centre and spread    1  ( -1.874004, -1.896996, -1.842063 )     9.60886730
  WF centre and spread    2  ( -1.896982,  1.842075,  1.874030 )     9.60871552
  WF centre and spread    3  (  1.842090, -1.874004,  1.897016 )     9.60877557
  WF centre and spread    4  (  1.831813,  1.832629, -1.832117 )    15.52566607
  Sum of centres and spreads ( -0.097083, -0.096296,  0.096865 )    44.35202445
 
     69    -0.752E-03     1.6114282203       44.3520277807       0.55  <-- CONV
        O_D=      2.9647064 O_OD=     33.5351506 O_TOT=     44.3520278 <-- SPRD
 Delta: O_D= -0.1039378E-03 O_OD= -0.6478468E-03 O_TOT= -0.7517846E-03 <-- DLTA
 ------------------------------------------------------------------------------
 Cycle:     70
  WF centre and spread    1  ( -1.874007, -1.896998, -1.842063 )     9.60867320
  WF centre and spread    2  ( -1.896985,  1.842074,  1.874032 )     9.60852150
  WF centre and spread    3  (  1.842089, -1.874006,  1.897018 )     9.60858168
  WF centre and spread    4  (  1.832084,  1.832586, -1.832231 )    15.52573914
  Sum of centres and spreads ( -0.096818, -0.096344,  0.096756 )    44.35151551
 
     70    -0.509E-03     1.5602339305       44.3515188411       0.55  <-- CONV
        O_D=      2.9647277 O_OD=     33.5346203 O_TOT=     44.3515188 <-- SPRD
 Delta: O_D=  0.2127618E-04 O_OD= -0.5302159E-03 O_TOT= -0.5089397E-03 <-- DLTA
 ------------------------------------------------------------------------------
 Cycle:     71
  WF centre and spread    1  ( -1.874013, -1.897002, -1.842061 )     9.60824970
  WF centre and spread    2  ( -1.896990,  1.842072,  1.874037 )     9.60809816
  WF centre and spread    3  (  1.842087, -1.874011,  1.897022 )     9.60815813
  WF centre and spread    4  (  1.831959,  1.832592, -1.831961 )    15.52599653
  Sum of centres and spreads ( -0.096957, -0.096349,  0.097036 )    44.35050252
 
     71    -0.101E-02     1.5995391632       44.3505058478       0.56  <-- CONV
        O_D=      2.9648738 O_OD=     33.5334612 O_TOT=     44.3505058 <-- SPRD
 Delta: O_D=  0.1461110E-03 O_OD= -0.1159104E-02 O_TOT= -0.1012993E-02 <-- DLTA
 ------------------------------------------------------------------------------
 Cycle:     72
  WF centre and spread    1  ( -1.874019, -1.897007, -1.842060 )     9.60784238
  WF centre and spread    2  ( -1.896995,  1.842070,  1.874041 )     9.60769045
  WF centre and spread    3  (  1.842084, -1.874017,  1.897025 )     9.60775076
  WF centre and spread    4  (  1.831497,  1.832340, -1.831864 )    15.52633026
  Sum of centres and spreads ( -0.097433, -0.096615,  0.097142 )    44.34961385
 
     72    -0.889E-03     1.9832738501       44.3496171795       0.57  <-- CONV
        O_D=      2.9651007 O_OD=     33.5323456 O_TOT=     44.3496172 <-- SPRD
 Delta: O_D=  0.2269312E-03 O_OD= -0.1115600E-02 O_TOT= -0.8886683E-03 <-- DLTA
 ------------------------------------------------------------------------------
 Cycle:     73
  WF centre and spread    1  ( -1.874018, -1.897009, -1.842060 )     9.60780123
  WF centre and spread    2  ( -1.896994,  1.842069,  1.874041 )     9.60764978
  WF centre and spread    3  (  1.842085, -1.874018,  1.897026 )     9.60771042
  WF centre and spread    4  (  1.831710,  1.832159, -1.832077 )    15.52596098
  Sum of centres and spreads ( -0.097218, -0.096799,  0.096930 )    44.34912241
 
     73    -0.491E-03     1.8705486408       44.3491257370       0.58  <-- CONV
        O_D=      2.9647199 O_OD=     33.5322350 O_TOT=     44.3491257 <-- SPRD
 Delta: O_D= -0.3808277E-03 O_OD= -0.1106149E-03 O_TOT= -0.4914425E-03 <-- DLTA
 ------------------------------------------------------------------------------
 Cycle:     74
  WF centre and spread    1  ( -1.874018, -1.897010, -1.842060 )     9.60772711
  WF centre and spread    2  ( -1.896994,  1.842067,  1.874042 )     9.60757566
  WF centre and spread    3  (  1.842086, -1.874020,  1.897026 )     9.60763704
  WF centre and spread    4  (  1.832024,  1.831844, -1.832202 )    15.52578588
  Sum of centres and spreads ( -0.096902, -0.097119,  0.096807 )    44.34872569
 
     74    -0.397E-03     1.8773380819       44.3487290152       0.59  <-- CONV
        O_D=      2.9645241 O_OD=     33.5320341 O_TOT=     44.3487290 <-- SPRD
 Delta: O_D= -0.1957595E-03 O_OD= -0.2009623E-03 O_TOT= -0.3967218E-03 <-- DLTA
 ------------------------------------------------------------------------------
 Cycle:     75
  WF centre and spread    1  ( -1.874019, -1.897012, -1.842059 )     9.60762863
  WF centre and spread    2  ( -1.896995,  1.842067,  1.874044 )     9.60747723
  WF centre and spread    3  (  1.842085, -1.874022,  1.897028 )     9.60753849
  WF centre and spread    4  (  1.831598,  1.831886, -1.832050 )    15.52575485
  Sum of centres and spreads ( -0.097331, -0.097081,  0.096963 )    44.34839920
 
     75    -0.326E-03     1.5974666374       44.3484025263       0.59  <-- CONV
        O_D=      2.9644667 O_OD=     33.5317650 O_TOT=     44.3484025 <-- SPRD
 Delta: O_D= -0.5744950E-04 O_OD= -0.2690394E-03 O_TOT= -0.3264889E-03 <-- DLTA
 ------------------------------------------------------------------------------
 Cycle:     76
  WF centre and spread    1  ( -1.874021, -1.897014, -1.842056 )     9.60741189
  WF centre and spread    2  ( -1.896996,  1.842066,  1.874048 )     9.60726044
  WF centre and spread    3  (  1.842085, -1.874025,  1.897031 )     9.60732136
  WF centre and spread    4  (  1.831919,  1.831821, -1.831539 )    15.52584727
  Sum of centres and spreads ( -0.097012, -0.097152,  0.097484 )    44.34784097
 
     76    -0.558E-03     1.6044460828       44.3478442916       0.60  <-- CONV
        O_D=      2.9644998 O_OD=     33.5311737 O_TOT=     44.3478443 <-- SPRD
 Delta: O_D=  0.3310655E-04 O_OD= -0.5913413E-03 O_TOT= -0.5582347E-03 <-- DLTA
 ------------------------------------------------------------------------------
 Cycle:     77
  WF centre and spread    1  ( -1.874022, -1.897017, -1.842055 )     9.60718789
  WF centre and spread    2  ( -1.896997,  1.842064,  1.874051 )     9.60703562
  WF centre and spread    3  (  1.842086, -1.874028,  1.897034 )     9.60709685
  WF centre and spread    4  (  1.832443,  1.831791, -1.831533 )    15.52593208
  Sum of centres and spreads ( -0.096490, -0.097190,  0.097496 )    44.34725244
 
     77    -0.589E-03     1.6082457469       44.3472557703       0.61  <-- CONV
        O_D=      2.9645221 O_OD=     33.5305629 O_TOT=     44.3472558 <-- SPRD
 Delta: O_D=  0.2229746E-04 O_OD= -0.6108188E-03 O_TOT= -0.5885213E-03 <-- DLTA
 ------------------------------------------------------------------------------
 Cycle:     78
  WF centre and spread    1  ( -1.874025, -1.897020, -1.842055 )     9.60693928
  WF centre and spread    2  ( -1.897000,  1.842062,  1.874053 )     9.60678584
  WF centre and spread    3  (  1.842085, -1.874032,  1.897035 )     9.60684722
  WF centre and spread    4  (  1.832024,  1.831651, -1.831901 )    15.52606535
  Sum of centres and spreads ( -0.096917, -0.097338,  0.097132 )    44.34663769
 
     78    -0.615E-03     1.9705867548       44.3466410163       0.62  <-- CONV
        O_D=      2.9645870 O_OD=     33.5298832 O_TOT=     44.3466410 <-- SPRD
 Delta: O_D=  0.6491274E-04 O_OD= -0.6796667E-03 O_TOT= -0.6147539E-03 <-- DLTA
 ------------------------------------------------------------------------------
 Cycle:     79
  WF centre and spread    1  ( -1.874025, -1.897021, -1.842055 )     9.60690535
  WF centre and spread    2  ( -1.897000,  1.842062,  1.874053 )     9.60675213
  WF centre and spread    3  (  1.842085, -1.874032,  1.897036 )     9.60681364
  WF centre and spread    4  (  1.832316,  1.831425, -1.831799 )    15.52595192
  Sum of centres and spreads ( -0.096624, -0.097565,  0.097234 )    44.34642304
 
     79    -0.215E-03     1.6661224791       44.3464263647       0.62  <-- CONV
        O_D=      2.9644644 O_OD=     33.5297911 O_TOT=     44.3464264 <-- SPRD
 Delta: O_D= -0.1225519E-03 O_OD= -0.9209971E-04 O_TOT= -0.2146516E-03 <-- DLTA
 ------------------------------------------------------------------------------
 Cycle:     80
  WF centre and spread    1  ( -1.874027, -1.897021, -1.842055 )     9.60682704
  WF centre and spread    2  ( -1.897001,  1.842062,  1.874054 )     9.60667470
  WF centre and spread    3  (  1.842084, -1.874032,  1.897037 )     9.60673588
  WF centre and spread    4  (  1.832084,  1.831458, -1.831645 )    15.52591254
  Sum of centres and spreads ( -0.096859, -0.097532,  0.097391 )    44.34615015
 
     80    -0.273E-03     2.2488071334       44.3461534737       0.63  <-- CONV
        O_D=      2.9644043 O_OD=     33.5295783 O_TOT=     44.3461535 <-- SPRD
 Delta: O_D= -0.6010673E-04 O_OD= -0.2127843E-03 O_TOT= -0.2728910E-03 <-- DLTA
 ------------------------------------------------------------------------------
 Cycle:     81
  WF centre and spread    1  ( -1.874028, -1.897020, -1.842054 )     9.60674233
  WF centre and spread    2  ( -1.897002,  1.842063,  1.874055 )     9.60659067
  WF centre and spread    3  (  1.842083, -1.874032,  1.897037 )     9.60665142
  WF centre and spread    4  (  1.831691,  1.831780, -1.831705 )    15.52608109
  Sum of centres and spreads ( -0.097257, -0.097209,  0.097333 )    44.34606551
 
     81    -0.846E-04     1.9604049839       44.3460688407       0.64  <-- CONV
        O_D=      2.9645498 O_OD=     33.5293482 O_TOT=     44.3460688 <-- SPRD
 Delta: O_D=  0.1454945E-03 O_OD= -0.2301275E-03 O_TOT= -0.8463300E-04 <-- DLTA
 ------------------------------------------------------------------------------
 Cycle:     82
  WF centre and spread    1  ( -1.874030, -1.897020, -1.842054 )     9.60663000
  WF centre and spread    2  ( -1.897004,  1.842064,  1.874056 )     9.60647868
  WF centre and spread    3  (  1.842082, -1.874033,  1.897038 )     9.60653928
  WF centre and spread    4  (  1.831663,  1.831986, -1.831883 )    15.52629906
  Sum of centres and spreads ( -0.097289, -0.097003,  0.097157 )    44.34594702
 
     82    -0.118E-03     2.9518866390       44.3459503502       0.65  <-- CONV
        O_D=      2.9647367 O_OD=     33.5290429 O_TOT=     44.3459504 <-- SPRD
 Delta: O_D=  0.1868178E-03 O_OD= -0.3053084E-03 O_TOT= -0.1184906E-03 <-- DLTA
 ------------------------------------------------------------------------------
 Cycle:     83
  WF centre and spread    1  ( -1.874035, -1.897022, -1.842055 )     9.60618580
  WF centre and spread    2  ( -1.897009,  1.842065,  1.874060 )     9.60603444
  WF centre and spread    3  (  1.842081, -1.874035,  1.897041 )     9.60609535
  WF centre and spread    4  (  1.832516,  1.832172, -1.832666 )    15.52833167
  Sum of centres and spreads ( -0.096448, -0.096821,  0.096379 )    44.34664725
 
     83     0.700E-03     3.7040129619       44.3466505816       0.66  <-- CONV
        O_D=      2.9666454 O_OD=     33.5278344 O_TOT=     44.3466506 <-- SPRD
 Delta: O_D=  0.1908733E-02 O_OD= -0.1208502E-02 O_TOT=  0.7002315E-03 <-- DLTA
 ------------------------------------------------------------------------------
 Cycle:     84
  WF centre and spread    1  ( -1.874041, -1.897019, -1.842052 )     9.60612030
  WF centre and spread    2  ( -1.897014,  1.842068,  1.874062 )     9.60597020
  WF centre and spread    3  (  1.842075, -1.874032,  1.897043 )     9.60602758
  WF centre and spread    4  (  1.828720,  1.834029, -1.831395 )    15.53694007
  Sum of centres and spreads ( -0.100261, -0.094953,  0.097658 )    44.35505814
 
     84     0.841E-02     4.9249800661       44.3550614676       0.66  <-- CONV
        O_D=      2.9752425 O_OD=     33.5276482 O_TOT=     44.3550615 <-- SPRD
 Delta: O_D=  0.8597098E-02 O_OD= -0.1862124E-03 O_TOT=  0.8410886E-02 <-- DLTA
 ------------------------------------------------------------------------------
 Cycle:     85
  WF centre and spread    1  ( -1.874002, -1.897049, -1.842052 )     9.60614304
  WF centre and spread    2  ( -1.896975,  1.842040,  1.874063 )     9.60598637
  WF centre and spread    3  (  1.842118, -1.874063,  1.897044 )     9.60606883
  WF centre and spread    4  (  1.841764,  1.826579, -1.832863 )    15.61494785
  Sum of centres and spreads ( -0.087096, -0.102494,  0.096193 )    44.43314609
 
     85     0.781E-01    12.9689522717       44.4331494138       0.67  <-- CONV
        O_D=      3.0532409 O_OD=     33.5277377 O_TOT=     44.4331494 <-- SPRD
 Delta: O_D=  0.7799837E-01 O_OD=  0.8957718E-04 O_TOT=  0.7808795E-01 <-- DLTA
 ------------------------------------------------------------------------------
 Cycle:     86
  WF centre and spread    1  ( -1.873970, -1.897066, -1.842044 )     9.60652773
  WF centre and spread    2  ( -1.896942,  1.842025,  1.874073 )     9.60636854
  WF centre and spread    3  (  1.842158, -1.874083,  1.897055 )     9.60648679
  WF centre and spread    4  (  1.834234,  1.835245, -1.832297 )    15.68484207
  Sum of centres and spreads ( -0.094520, -0.093879,  0.096787 )    44.50422512
 
     86     0.711E-01    19.3420662183       44.5042284494       0.68  <-- CONV
        O_D=      3.1232500 O_OD=     33.5288076 O_TOT=     44.5042284 <-- SPRD
 Delta: O_D=  0.7000916E-01 O_OD=  0.1069878E-02 O_TOT=  0.7107904E-01 <-- DLTA
 ------------------------------------------------------------------------------
 Cycle:     87
  WF centre and spread    1  ( -1.873877, -1.897126, -1.842010 )     9.60806650
  WF centre and spread    2  ( -1.896850,  1.841968,  1.874103 )     9.60789890
[...]
  Sum of centres and spreads ( -0.103875, -0.101390,  0.103513 )    44.10108274
 
    476    -0.270E-03     1.7799247659       44.1010860710       3.75  <-- CONV
        O_D=      2.9619544 O_OD=     33.2869608 O_TOT=     44.1010861 <-- SPRD
 Delta: O_D= -0.1863624E-03 O_OD= -0.8400178E-04 O_TOT= -0.2703642E-03 <-- DLTA
 ------------------------------------------------------------------------------
 Cycle:    477
  WF centre and spread    1  ( -1.875765, -1.898384, -1.841365 )     9.51969820
  WF centre and spread    2  ( -1.898488,  1.841513,  1.875778 )     9.51975214
  WF centre and spread    3  (  1.841377, -1.875660,  1.898498 )     9.51972998
  WF centre and spread    4  (  1.828950,  1.830881, -1.829148 )    15.54163381
  Sum of centres and spreads ( -0.103927, -0.101650,  0.103762 )    44.10081414
 
    477    -0.269E-03     1.6282230223       44.1008174616       3.76  <-- CONV
        O_D=      2.9618675 O_OD=     33.2867791 O_TOT=     44.1008175 <-- SPRD
 Delta: O_D= -0.8693322E-04 O_OD= -0.1816762E-03 O_TOT= -0.2686094E-03 <-- DLTA
 ------------------------------------------------------------------------------
 Cycle:    478
  WF centre and spread    1  ( -1.875766, -1.898385, -1.841365 )     9.51960041
  WF centre and spread    2  ( -1.898489,  1.841513,  1.875779 )     9.51965422
  WF centre and spread    3  (  1.841377, -1.875661,  1.898499 )     9.51963209
  WF centre and spread    4  (  1.829051,  1.830866, -1.829100 )    15.54163964
  Sum of centres and spreads ( -0.103828, -0.101667,  0.103813 )    44.10052637
 
    478    -0.288E-03     1.2130817979       44.1005296973       3.77  <-- CONV
        O_D=      2.9618502 O_OD=     33.2865086 O_TOT=     44.1005297 <-- SPRD
 Delta: O_D= -0.1725445E-04 O_OD= -0.2705099E-03 O_TOT= -0.2877644E-03 <-- DLTA
 ------------------------------------------------------------------------------
 Cycle:    479
  WF centre and spread    1  ( -1.875769, -1.898386, -1.841365 )     9.51942554
  WF centre and spread    2  ( -1.898491,  1.841513,  1.875780 )     9.51947900
  WF centre and spread    3  (  1.841376, -1.875662,  1.898500 )     9.51945684
  WF centre and spread    4  (  1.828817,  1.831327, -1.829322 )    15.54173587
  Sum of centres and spreads ( -0.104067, -0.101209,  0.103593 )    44.10009725
 
    479    -0.429E-03     1.5861031607       44.1001005722       3.78  <-- CONV
        O_D=      2.9619047 O_OD=     33.2860250 O_TOT=     44.1001006 <-- SPRD
 Delta: O_D=  0.5450467E-04 O_OD= -0.4836297E-03 O_TOT= -0.4291251E-03 <-- DLTA
 ------------------------------------------------------------------------------
 Cycle:    480
  WF centre and spread    1  ( -1.875772, -1.898389, -1.841364 )     9.51909074
  WF centre and spread    2  ( -1.898494,  1.841512,  1.875785 )     9.51914480
  WF centre and spread    3  (  1.841376, -1.875666,  1.898503 )     9.51912164
  WF centre and spread    4  (  1.828899,  1.832135, -1.829186 )    15.54206043
  Sum of centres and spreads ( -0.103992, -0.100408,  0.103738 )    44.09941761
 
    480    -0.680E-03     1.7434421704       44.0994209339       3.78  <-- CONV
        O_D=      2.9621488 O_OD=     33.2851013 O_TOT=     44.0994209 <-- SPRD
 Delta: O_D=  0.2440484E-03 O_OD= -0.9236868E-03 O_TOT= -0.6796383E-03 <-- DLTA
 ------------------------------------------------------------------------------
 Cycle:    481
  WF centre and spread    1  ( -1.875778, -1.898396, -1.841362 )     9.51853030
  WF centre and spread    2  ( -1.898499,  1.841508,  1.875791 )     9.51858531
  WF centre and spread    3  (  1.841375, -1.875674,  1.898509 )     9.51855949
  WF centre and spread    4  (  1.829194,  1.831891, -1.829130 )    15.54236824
  Sum of centres and spreads ( -0.103708, -0.100672,  0.103808 )    44.09804334
 
    481    -0.137E-02     2.4866152084       44.0980466628       3.79  <-- CONV
        O_D=      2.9623222 O_OD=     33.2835536 O_TOT=     44.0980467 <-- SPRD
 Delta: O_D=  0.1734276E-03 O_OD= -0.1547699E-02 O_TOT= -0.1374271E-02 <-- DLTA
 ------------------------------------------------------------------------------
 Cycle:    482
  WF centre and spread    1  ( -1.875779, -1.898398, -1.841363 )     9.51849597
  WF centre and spread    2  ( -1.898500,  1.841506,  1.875790 )     9.51855016
  WF centre and spread    3  (  1.841374, -1.875676,  1.898508 )     9.51852394
  WF centre and spread    4  (  1.828524,  1.830935, -1.829885 )    15.54284321
  Sum of centres and spreads ( -0.104381, -0.101634,  0.103050 )    44.09841328
 
    482     0.370E-03     2.9795361463       44.0984166045       3.80  <-- CONV
        O_D=      2.9627897 O_OD=     33.2834561 O_TOT=     44.0984166 <-- SPRD
 Delta: O_D=  0.4674781E-03 O_OD= -0.9753637E-04 O_TOT=  0.3699417E-03 <-- DLTA
 ------------------------------------------------------------------------------
 Cycle:    483
  WF centre and spread    1  ( -1.875775, -1.898397, -1.841357 )     9.51843900
  WF centre and spread    2  ( -1.898496,  1.841508,  1.875797 )     9.51849640
  WF centre and spread    3  (  1.841378, -1.875675,  1.898514 )     9.51847030
  WF centre and spread    4  (  1.831403,  1.832583, -1.826831 )    15.56144051
  Sum of centres and spreads ( -0.101490, -0.099981,  0.106123 )    44.11684621
 
    483     0.184E-01     4.9866461023       44.1168495415       3.81  <-- CONV
        O_D=      2.9813726 O_OD=     33.2833061 O_TOT=     44.1168495 <-- SPRD
 Delta: O_D=  0.1858295E-01 O_OD= -0.1500124E-03 O_TOT=  0.1843294E-01 <-- DLTA
 ------------------------------------------------------------------------------
 Cycle:    484
  WF centre and spread    1  ( -1.875815, -1.898419, -1.841407 )     9.51854835
  WF centre and spread    2  ( -1.898535,  1.841484,  1.875749 )     9.51857443
  WF centre and spread    3  (  1.841341, -1.875699,  1.898466 )     9.51854443
  WF centre and spread    4  (  1.826209,  1.826939, -1.836565 )    15.63902473
  Sum of centres and spreads ( -0.106799, -0.105695,  0.096242 )    44.19469194
 
    484     0.778E-01    17.5461299867       44.1946952678       3.81  <-- CONV
        O_D=      3.0589944 O_OD=     33.2835300 O_TOT=     44.1946953 <-- SPRD
 Delta: O_D=  0.7762179E-01 O_OD=  0.2239318E-03 O_TOT=  0.7784573E-01 <-- DLTA
 ------------------------------------------------------------------------------
 Cycle:    485
  WF centre and spread    1  ( -1.875837, -1.898410, -1.841405 )     9.51880530
  WF centre and spread    2  ( -1.898556,  1.841494,  1.875754 )     9.51883495
  WF centre and spread    3  (  1.841319, -1.875689,  1.898470 )     9.51878471
  WF centre and spread    4  (  1.823379,  1.830398, -1.832885 )    15.60082481
  Sum of centres and spreads ( -0.109695, -0.102208,  0.099934 )    44.15724977
 
    485    -0.374E-01    11.6236610788       44.1572530913       3.82  <-- CONV
        O_D=      3.0208481 O_OD=     33.2842341 O_TOT=     44.1572531 <-- SPRD
 Delta: O_D= -0.3814630E-01 O_OD=  0.7041225E-03 O_TOT= -0.3744218E-01 <-- DLTA
 ------------------------------------------------------------------------------
 Cycle:    486
  WF centre and spread    1  ( -1.875834, -1.898404, -1.841391 )     9.51932892
  WF centre and spread    2  ( -1.898550,  1.841504,  1.875772 )     9.51935585
  WF centre and spread    3  (  1.841326, -1.875686,  1.898487 )     9.51930443
  WF centre and spread    4  (  1.828786,  1.832308, -1.830471 )    15.58277612
  Sum of centres and spreads ( -0.104272, -0.100278,  0.102397 )    44.14076532
 
    486    -0.165E-01    14.0777612838       44.1407686481       3.83  <-- CONV
        O_D=      3.0028749 O_OD=     33.2857229 O_TOT=     44.1407686 <-- SPRD
 Delta: O_D= -0.1797321E-01 O_OD=  0.1488769E-02 O_TOT= -0.1648444E-01 <-- DLTA
 ------------------------------------------------------------------------------
 Cycle:    487
  WF centre and spread    1  ( -1.875839, -1.898411, -1.841389 )     9.51934292
  WF centre and spread    2  ( -1.898556,  1.841497,  1.875775 )     9.51937750
  WF centre and spread    3  (  1.841322, -1.875692,  1.898489 )     9.51931458
  WF centre and spread    4  (  1.827639,  1.829904, -1.831616 )    15.56988919
  Sum of centres and spreads ( -0.105434, -0.102702,  0.101260 )    44.12792418
 
    487    -0.128E-01     5.6670732278       44.1279275109       3.84  <-- CONV
        O_D=      2.9899805 O_OD=     33.2857761 O_TOT=     44.1279275 <-- SPRD
 Delta: O_D= -0.1289439E-01 O_OD=  0.5325246E-04 O_TOT= -0.1284114E-01 <-- DLTA
 ------------------------------------------------------------------------------
 Cycle:    488
  WF centre and spread    1  ( -1.875849, -1.898415, -1.841370 )     9.51933048
  WF centre and spread    2  ( -1.898566,  1.841494,  1.875797 )     9.51938704
  WF centre and spread    3  (  1.841314, -1.875697,  1.898509 )     9.51929464
  WF centre and spread    4  (  1.827788,  1.831871, -1.828513 )    15.56329024
  Sum of centres and spreads ( -0.105312, -0.100747,  0.104423 )    44.12130240
 
    488    -0.662E-02     8.4499373603       44.1213057233       3.85  <-- CONV
        O_D=      2.9833470 O_OD=     33.2857879 O_TOT=     44.1213057 <-- SPRD
 Delta: O_D= -0.6633582E-02 O_OD=  0.1179435E-04 O_TOT= -0.6621788E-02 <-- DLTA
 ------------------------------------------------------------------------------
 Cycle:    489
  WF centre and spread    1  ( -1.875855, -1.898426, -1.841371 )     9.51926435
  WF centre and spread    2  ( -1.898572,  1.841483,  1.875799 )     9.51932705
  WF centre and spread    3  (  1.841310, -1.875709,  1.898510 )     9.51922542
  WF centre and spread    4  (  1.827550,  1.830999, -1.830630 )    15.56063515
  Sum of centres and spreads ( -0.105567, -0.101654,  0.102308 )    44.11845196
 
    489    -0.285E-02     6.1760731032       44.1184552847       3.85  <-- CONV
        O_D=      2.9806566 O_OD=     33.2856278 O_TOT=     44.1184553 <-- SPRD
 Delta: O_D= -0.2690338E-02 O_OD= -0.1601002E-03 O_TOT= -0.2850439E-02 <-- DLTA
 ------------------------------------------------------------------------------
 Cycle:    490
  WF centre and spread    1  ( -1.875856, -1.898426, -1.841366 )     9.51917149
  WF centre and spread    2  ( -1.898573,  1.841484,  1.875804 )     9.51924064
  WF centre and spread    3  (  1.841309, -1.875709,  1.898516 )     9.51913442
  WF centre and spread    4  (  1.826858,  1.831535, -1.829637 )    15.55574681
  Sum of centres and spreads ( -0.106261, -0.101116,  0.103318 )    44.11329337
 
    490    -0.516E-02     4.7916255117       44.1132966935       3.86  <-- CONV
        O_D=      2.9757520 O_OD=     33.2853738 O_TOT=     44.1132967 <-- SPRD
 Delta: O_D= -0.4904587E-02 O_OD= -0.2540045E-03 O_TOT= -0.5158591E-02 <-- DLTA
 ------------------------------------------------------------------------------
 Cycle:    491
  WF centre and spread    1  ( -1.875854, -1.898432, -1.841363 )     9.51906856
  WF centre and spread    2  ( -1.898570,  1.841478,  1.875808 )     9.51913695
  WF centre and spread    3  (  1.841313, -1.875716,  1.898520 )     9.51903237
  WF centre and spread    4  (  1.827796,  1.829662, -1.828756 )    15.55407821
  Sum of centres and spreads ( -0.105314, -0.103009,  0.104209 )    44.11131610
 
    491    -0.198E-02     3.7532351396       44.1113194272       3.87  <-- CONV
        O_D=      2.9740587 O_OD=     33.2850899 O_TOT=     44.1113194 <-- SPRD
 Delta: O_D= -0.1693331E-02 O_OD= -0.2839357E-03 O_TOT= -0.1977266E-02 <-- DLTA
 ------------------------------------------------------------------------------
 Cycle:    492
  WF centre and spread    1  ( -1.875853, -1.898439, -1.841363 )     9.51878766
  WF centre and spread    2  ( -1.898568,  1.841474,  1.875810 )     9.51885107
  WF centre and spread    3  (  1.841317, -1.875723,  1.898521 )     9.51875284
  WF centre and spread    4  (  1.827810,  1.830348, -1.829318 )    15.54957744
  Sum of centres and spreads ( -0.105295, -0.102339,  0.103650 )    44.10596902
 
    492    -0.535E-02     3.5101503483       44.1059723508       3.88  <-- CONV
        O_D=      2.9694863 O_OD=     33.2843152 O_TOT=     44.1059724 <-- SPRD
 Delta: O_D= -0.4572415E-02 O_OD= -0.7746614E-03 O_TOT= -0.5347076E-02 <-- DLTA
 ------------------------------------------------------------------------------
 Cycle:    493
  WF centre and spread    1  ( -1.875852, -1.898443, -1.841365 )     9.51855067
  WF centre and spread    2  ( -1.898567,  1.841472,  1.875811 )     9.51861457
  WF centre and spread    3  (  1.841319, -1.875728,  1.898521 )     9.51851884
  WF centre and spread    4  (  1.827690,  1.829792, -1.830857 )    15.54750542
  Sum of centres and spreads ( -0.105410, -0.102907,  0.102109 )    44.10318951
 
    493    -0.278E-02     3.4272094620       44.1031928341       3.88  <-- CONV
        O_D=      2.9673633 O_OD=     33.2836587 O_TOT=     44.1031928 <-- SPRD
 Delta: O_D= -0.2122936E-02 O_OD= -0.6565805E-03 O_TOT= -0.2779517E-02 <-- DLTA
 ------------------------------------------------------------------------------
 Cycle:    494
  WF centre and spread    1  ( -1.875851, -1.898446, -1.841357 )     9.51810580
  WF centre and spread    2  ( -1.898565,  1.841473,  1.875823 )     9.51816915
  WF centre and spread    3  (  1.841325, -1.875731,  1.898532 )     9.51807525
  WF centre and spread    4  (  1.828148,  1.830698, -1.829246 )    15.54502624
  Sum of centres and spreads ( -0.104943, -0.102006,  0.103753 )    44.09937643
 
    494    -0.381E-02     2.7540920049       44.0993797603       3.89  <-- CONV
        O_D=      2.9647802 O_OD=     33.2824287 O_TOT=     44.0993798 <-- SPRD
 Delta: O_D= -0.2583133E-02 O_OD= -0.1229941E-02 O_TOT= -0.3813074E-02 <-- DLTA
 ------------------------------------------------------------------------------
 Cycle:    495
  WF centre and spread    1  ( -1.875850, -1.898450, -1.841353 )     9.51778055
  WF centre and spread    2  ( -1.898564,  1.841472,  1.875829 )     9.51784366
  WF centre and spread    3  (  1.841329, -1.875736,  1.898538 )     9.51775364
  WF centre and spread    4  (  1.828602,  1.831018, -1.829168 )    15.54375358
  Sum of centres and spreads ( -0.104484, -0.101696,  0.103846 )    44.09713143
 
    495    -0.225E-02     2.8318013481       44.0971347538       3.90  <-- CONV
        O_D=      2.9634295 O_OD=     33.2815344 O_TOT=     44.0971348 <-- SPRD
 Delta: O_D= -0.1350702E-02 O_OD= -0.8943048E-03 O_TOT= -0.2245007E-02 <-- DLTA
 ------------------------------------------------------------------------------
 Cycle:    496
  WF centre and spread    1  ( -1.875851, -1.898451, -1.841354 )     9.51772962
  WF centre and spread    2  ( -1.898564,  1.841471,  1.875829 )     9.51779296
  WF centre and spread    3  (  1.841329, -1.875737,  1.898538 )     9.51770223
  WF centre and spread    4  (  1.828745,  1.830824, -1.829355 )    15.54328858
  Sum of centres and spreads ( -0.104342, -0.101893,  0.103659 )    44.09651338
 
    496    -0.618E-03     1.8368465401       44.0965167085       3.91  <-- CONV
        O_D=      2.9629522 O_OD=     33.2813937 O_TOT=     44.0965167 <-- SPRD
 Delta: O_D= -0.4773426E-03 O_OD= -0.1407028E-03 O_TOT= -0.6180453E-03 <-- DLTA
 ------------------------------------------------------------------------------
 Cycle:    497
  WF centre and spread    1  ( -1.875855, -1.898456, -1.841354 )     9.51750492
  WF centre and spread    2  ( -1.898568,  1.841468,  1.875830 )     9.51756885
  WF centre and spread    3  (  1.841326, -1.875742,  1.898539 )     9.51747739
  WF centre and spread    4  (  1.827910,  1.830342, -1.829858 )    15.54309772
  Sum of centres and spreads ( -0.105187, -0.102388,  0.103157 )    44.09564888
 
    497    -0.865E-03     1.2940835895       44.0956522060       3.92  <-- CONV
        O_D=      2.9627071 O_OD=     33.2807743 O_TOT=     44.0956522 <-- SPRD
 Delta: O_D= -0.2451162E-03 O_OD= -0.6193863E-03 O_TOT= -0.8645025E-03 <-- DLTA
 ------------------------------------------------------------------------------
 Cycle:    498
  WF centre and spread    1  ( -1.875857, -1.898462, -1.841352 )     9.51714393
  WF centre and spread    2  ( -1.898569,  1.841464,  1.875835 )     9.51720742
  WF centre and spread    3  (  1.841327, -1.875749,  1.898543 )     9.51711665
  WF centre and spread    4  (  1.828601,  1.830108, -1.829692 )    15.54298192
  Sum of centres and spreads ( -0.104498, -0.102639,  0.103334 )    44.09444992
 
    498    -0.120E-02     1.6216769268       44.0944532417       3.92  <-- CONV
        O_D=      2.9625022 O_OD=     33.2797802 O_TOT=     44.0944532 <-- SPRD
 Delta: O_D= -0.2048505E-03 O_OD= -0.9941139E-03 O_TOT= -0.1198964E-02 <-- DLTA
 ------------------------------------------------------------------------------
 Cycle:    499
  WF centre and spread    1  ( -1.875866, -1.898475, -1.841345 )     9.51609973
  WF centre and spread    2  ( -1.898576,  1.841457,  1.875851 )     9.51616415
  WF centre and spread    3  (  1.841327, -1.875763,  1.898557 )     9.51607228
  WF centre and spread    4  (  1.829082,  1.830146, -1.829197 )    15.54325380
  Sum of centres and spreads ( -0.104033, -0.102635,  0.103867 )    44.09158997
 
    499    -0.286E-02     1.7151053129       44.0915932922       3.93  <-- CONV
        O_D=      2.9625176 O_OD=     33.2769049 O_TOT=     44.0915933 <-- SPRD
 Delta: O_D=  0.1536574E-04 O_OD= -0.2875315E-02 O_TOT= -0.2859949E-02 <-- DLTA
 ------------------------------------------------------------------------------
 Cycle:    500
  WF centre and spread    1  ( -1.875868, -1.898473, -1.841345 )     9.51604198
  WF centre and spread    2  ( -1.898578,  1.841458,  1.875851 )     9.51610876
  WF centre and spread    3  (  1.841325, -1.875762,  1.898557 )     9.51601593
  WF centre and spread    4  (  1.827929,  1.830490, -1.829651 )    15.54232083
  Sum of centres and spreads ( -0.105193, -0.102288,  0.103413 )    44.09048750
 
    500    -0.110E-02     3.3366647756       44.0904908298       3.94  <-- CONV
        O_D=      2.9615767 O_OD=     33.2767433 O_TOT=     44.0904908 <-- SPRD
 Delta: O_D= -0.9408702E-03 O_OD= -0.1615923E-03 O_TOT= -0.1102462E-02 <-- DLTA
 ------------------------------------------------------------------------------

 Writing checkpoint file mp-23167.chk... done

 Final State
  WF centre and spread    1  ( -1.875868, -1.898473, -1.841345 )     9.51604198
  WF centre and spread    2  ( -1.898578,  1.841458,  1.875851 )     9.51610876
  WF centre and spread    3  (  1.841325, -1.875762,  1.898557 )     9.51601593
  WF centre and spread    4  (  1.827929,  1.830490, -1.829651 )    15.54232083
  Sum of centres and spreads ( -0.105193, -0.102288,  0.103413 )    44.09048750
 
         Spreads (Ang^2)       Omega I      =     7.852170830
        ================       Omega D      =     2.961576700
                               Omega OD     =    33.276743300
    Final Spread (Ang^2)       Omega Total  =    44.090490830
 ------------------------------------------------------------------------------
 Time for wannierise            3.939 (sec)

 Writing checkpoint file mp-23167.chk... done

 Time for plotting              0.000 (sec)
 Total Execution Time           5.439 (sec)

 *===========================================================================*
 |                             TIMING INFORMATION                            |
 *===========================================================================*
 |    Tag                                                Ncalls      Time (s)|
 |---------------------------------------------------------------------------|
 |kmesh: get                                        :         1         1.171|
 |overlap: allocate                                 :         1         0.002|
 |overlap: read                                     :         1         0.208|
 |wann: main                                        :         1         3.939|
 |plot: main                                        :         1         0.000|
 *---------------------------------------------------------------------------*
 
 All done: wannier90 exiting
