
     Program PWSCF v.7.1 starts on  8Apr2024 at 15:13: 0 

     This program is part of the open-source Quantum ESPRESSO suite
     for quantum simulation of materials; please cite
         "P. Giannozzi et al., J. Phys.:Condens. Matter 21 395502 (2009);
         "P. Giannozzi et al., J. Phys.:Condens. Matter 29 465901 (2017);
         "P. Giannozzi et al., J. Chem. Phys. 152 154105 (2020);
          URL http://www.quantum-espresso.org", 
     in publications or presentations arising from this work. More details at
     http://www.quantum-espresso.org/quote

     Parallel version (MPI), running on    16 processors

     MPI processes distributed on     1 nodes
     245871 MiB available memory on the printing compute node when the environment starts
 
     Reading input from pw_mp-23167_nscf_k3000_E65.in
Warning: card &IONS ignored
Warning: card / ignored
Warning: card &CELL ignored
Warning: card / ignored

     Current dimensions of program PWSCF are:
     Max number of different atomic species (ntypx) = 10
     Max number of k-points (npk) =  40000
     Max angular momentum in pseudopotentials (lmaxx) =  4

     Atomic positions and unit cell read from directory:
     out/mp-23167.save/
 
 
     R & G space division:  proc/nbgrp/npool/nimage =      16
     Subspace diagonalization in iterative solution of the eigenvalue problem:
     a serial algorithm will be used

 
     Parallelization info
     --------------------
     sticks:   dense  smooth     PW     G-vecs:    dense   smooth      PW
     Min          68      68     23                 1691     1691     339
     Max          70      70     24                 1694     1694     342
     Sum        1093    1093    373                27081    27081    5449
 
     Using Slab Decomposition
 


     bravais-lattice index     =            1
     lattice parameter (alat)  =       7.2518  a.u.
     unit-cell volume          =     381.3560 (a.u.)^3
     number of atoms/cell      =            2
     number of atomic types    =            2
     number of electrons       =        20.00
     number of Kohn-Sham states=           20
     kinetic-energy cutoff     =      65.0000  Ry
     charge density cutoff     =     260.0000  Ry
     Exchange-correlation= PBE
                           (   1   4   3   4   0   0   0)

     celldm(1)=   7.251762  celldm(2)=   0.000000  celldm(3)=   0.000000
     celldm(4)=   0.000000  celldm(5)=   0.000000  celldm(6)=   0.000000

     crystal axes: (cart. coord. in units of alat)
               a(1) = (   1.000000   0.000000   0.000000 )  
               a(2) = (   0.000000   1.000000   0.000000 )  
               a(3) = (   0.000000   0.000000   1.000000 )  

     reciprocal axes: (cart. coord. in units 2 pi/alat)
               b(1) = (  1.000000  0.000000  0.000000 )  
               b(2) = (  0.000000  1.000000  0.000000 )  
               b(3) = (  0.000000  0.000000  1.000000 )  


     PseudoPot. # 1 for Cl read from file:
     /usr/scratch4/magr4826/Promotion/Python/Code/devEb/pseudo/SG15/Cl.upf
     MD5 check sum: 0f993535b366f580ecbcdacce103c843
     Pseudo is Norm-conserving, Zval =  7.0
     Generated using ONCVPSP code by D. R. Hamann
     Using radial grid of  602 points,  4 beta functions with: 
                l(1) =   0
                l(2) =   0
                l(3) =   1
                l(4) =   1

     PseudoPot. # 2 for Tl read from file:
     /usr/scratch4/magr4826/Promotion/Python/Code/devEb/pseudo/SG15/Tl.upf
     MD5 check sum: e609bed4a69cad82b6107f8b9c0b5d83
     Pseudo is Norm-conserving, Zval = 13.0
     Generated using ONCVPSP code by D. R. Hamann
     Using radial grid of  602 points,  8 beta functions with: 
                l(1) =   0
                l(2) =   0
                l(3) =   1
                l(4) =   1
                l(5) =   2
                l(6) =   2
                l(7) =   3
                l(8) =   3

     atomic species   valence    mass     pseudopotential
        Cl             7.00    35.45300     Cl( 1.00)
        Tl            13.00   204.38330     Tl( 1.00)

     No symmetry found



   Cartesian axes

     site n.     atom                  positions (alat units)
         1           Tl  tau(   1) = (   0.0000000   0.0000000   0.0000000  )
         2           Cl  tau(   2) = (   0.5000000   0.5000000   0.5000000  )

     number of k points=  1728  Gaussian smearing, width (Ry)=  0.0005

     Number of k-points >= 100: set verbosity='high' to print them.

     Dense  grid:    27081 G-vectors     FFT dimensions: (  40,  40,  40)

     Estimated max dynamical RAM per process >     118.10 MB

     Estimated total dynamical RAM >       1.85 GB

     The potential is recalculated from file :
     out/mp-23167.save/charge-density

     Starting wfcs are random

     Band Structure Calculation
     Davidson diagonalization with overlap

     ethr =  5.00E-06,  avg # of iterations = 22.1

     total cpu time spent up to now is       82.9 secs

     End of band structure calculation

     Number of k-points >= 100: set verbosity='high' to print the bands.

     the Fermi energy is     5.7748 ev
     (compare with:     5.7748 eV, computed in scf)

     Writing all to output data dir out/mp-23167.save/
 
     init_run     :      0.09s CPU      0.27s WALL (       1 calls)
     electrons    :     67.17s CPU     81.77s WALL (       1 calls)

     Called by init_run:
     wfcinit      :      0.00s CPU      0.02s WALL (       1 calls)
     potinit      :      0.01s CPU      0.14s WALL (       1 calls)
     hinit0       :      0.01s CPU      0.03s WALL (       1 calls)

     Called by electrons:
     c_bands      :     67.17s CPU     81.77s WALL (       1 calls)
     v_of_rho     :      0.00s CPU      0.00s WALL (       1 calls)

     Called by c_bands:
     init_us_2    :      0.08s CPU      0.09s WALL (    1728 calls)
     init_us_2:cp :      0.08s CPU      0.08s WALL (    1728 calls)
     cegterg      :     62.66s CPU     64.53s WALL (    2753 calls)

     Called by *egterg:
     cdiaghg      :     13.21s CPU     13.56s WALL (   39872 calls)
     h_psi        :     47.64s CPU     49.14s WALL (   42625 calls)
     g_psi        :      0.24s CPU      0.25s WALL (   38144 calls)

     Called by h_psi:
     h_psi:calbec :      1.23s CPU      1.27s WALL (   42625 calls)
     vloc_psi     :     45.44s CPU     46.87s WALL (   42625 calls)
     add_vuspsi   :      0.75s CPU      0.78s WALL (   42625 calls)

     General routines
     calbec       :      1.19s CPU      1.23s WALL (   42625 calls)
     fft          :      0.00s CPU      0.02s WALL (      10 calls)
     fftw         :     42.75s CPU     44.07s WALL ( 1058814 calls)
 
     Parallel routines
 
     PWSCF        :   1m12.13s CPU   1m48.40s WALL

 
   This run was terminated on:  15:14:49   8Apr2024            

=------------------------------------------------------------------------------=
   JOB DONE.
=------------------------------------------------------------------------------=
