 
             +---------------------------------------------------+
             |                                                   |
             |                   WANNIER90                       |
             |                                                   |
             +---------------------------------------------------+
             |                                                   |
             |        Welcome to the Maximally-Localized         |
             |        Generalized Wannier Functions code         |
             |            http://www.wannier.org                 |
             |                                                   |
             |                                                   |
             |  Wannier90 Developer Group:                       |
             |    Giovanni Pizzi    (EPFL)                       |
             |    Valerio Vitale    (Cambridge)                  |
             |    David Vanderbilt  (Rutgers University)         |
             |    Nicola Marzari    (EPFL)                       |
             |    Ivo Souza         (Universidad del Pais Vasco) |
             |    Arash A. Mostofi  (Imperial College London)    |
             |    Jonathan R. Yates (University of Oxford)       |
             |                                                   |
             |  For the full list of Wannier90 3.x authors,      |
             |  please check the code documentation and the      |
             |  README on the GitHub page of the code            |
             |                                                   |
             |                                                   |
             |  Please cite                                      |
             |                                                   |
             |  [ref] "Wannier90 as a community code:            |
             |        new features and applications",            |
             |        G. Pizzi et al., J. Phys. Cond. Matt. 32,  |
             |        165902 (2020).                             |
             |        http://doi.org/10.1088/1361-648X/ab51ff    |
             |                                                   |
             |  in any publications arising from the use of      |
             |  this code. For the method please cite            |
             |                                                   |
             |  [ref] "Maximally Localized Generalised Wannier   |
             |         Functions for Composite Energy Bands"     |
             |         N. Marzari and D. Vanderbilt              |
             |         Phys. Rev. B 56 12847 (1997)              |
             |                                                   |
             |  [ref] "Maximally Localized Wannier Functions     |
             |         for Entangled Energy Bands"               |
             |         I. Souza, N. Marzari and D. Vanderbilt    |
             |         Phys. Rev. B 65 035109 (2001)             |
             |                                                   |
             |                                                   |
             | Copyright (c) 1996-2020                           |
             |        The Wannier90 Developer Group and          |
             |        individual contributors                    |
             |                                                   |
             |      Release: 3.1.0        5th March    2020      |
             |                                                   |
             | This program is free software; you can            |
             | redistribute it and/or modify it under the terms  |
             | of the GNU General Public License as published by |
             | the Free Software Foundation; either version 2 of |
             | the License, or (at your option) any later version|
             |                                                   |
             | This program is distributed in the hope that it   |
             | will be useful, but WITHOUT ANY WARRANTY; without |
             | even the implied warranty of MERCHANTABILITY or   |
             | FITNESS FOR A PARTICULAR PURPOSE. See the GNU     |
             | General Public License for more details.          |
             |                                                   |
             | You should have received a copy of the GNU General|
             | Public License along with this program; if not,   |
             | write to the Free Software Foundation, Inc.,      |
             | 675 Mass Ave, Cambridge, MA 02139, USA.           |
             |                                                   |
             +---------------------------------------------------+
             |    Execution started on  8Apr2024 at 15:12:53     |
             +---------------------------------------------------+
 
 ******************************************************************************
 * -> Using CODATA 2006 constant values                                       *
 *    (http://physics.nist.gov/cuu/Constants/index.html)                      *
 * -> Using Bohr value from CODATA                                            *
 ******************************************************************************
 

 Running in parallel on  16 CPUs

 
                                    ------
                                    SYSTEM
                                    ------
 
                              Lattice Vectors (Ang)
                    a_1    -2.736484   0.000000   2.736484
                    a_2     0.000000   2.736484   2.736484
                    a_3    -2.736484   2.736484   0.000000
 
                   Unit Cell Volume:      40.98347  (Ang^3)
 
                        Reciprocal-Space Vectors (Ang^-1)
                    b_1    -1.148040  -1.148040   1.148040
                    b_2     1.148040   1.148040   1.148040
                    b_3    -1.148040   1.148040  -1.148040
  
 *----------------------------------------------------------------------------*
 |   Site       Fractional Coordinate          Cartesian Coordinate (Ang)     |
 +----------------------------------------------------------------------------+
 | Al   1   0.00000   0.00000   0.00000   |    0.00000   0.00000   0.00000    |
 | P    1   0.75000   0.75000   0.75000   |   -4.10473   4.10473   4.10473    |
 *----------------------------------------------------------------------------*
                                ------------
                                K-POINT GRID
                                ------------
  
             Grid size = 12 x 12 x 12      Total points = 1728
  
  
 *---------------------------------- MAIN ------------------------------------*
 |  Number of Wannier Functions               :                 3             |
 |  Number of Objective Wannier Functions     :                 3             |
 |  Number of input Bloch states              :                 3             |
 |  Output verbosity (1=low, 5=high)          :                 1             |
 |  Timing Level (1=low, 5=high)              :                 1             |
 |  Optimisation (0=memory, 3=speed)          :                 3             |
 |  Length Unit                               :               Ang             |
 |  Post-processing setup (write *.nnkp)      :                 F             |
 |  Using Gamma-only branch of algorithms     :                 F             |
 *----------------------------------------------------------------------------*
 *------------------------------- WANNIERISE ---------------------------------*
 |  Total number of iterations                :               500             |
 |  Number of CG steps before reset           :                 5             |
 |  Trial step length for line search         :             2.000             |
 |  Convergence tolerence                     :         0.100E-09             |
 |  Convergence window                        :                -1             |
 |  Iterations between writing output         :                 1             |
 |  Iterations between backing up to disk     :               100             |
 |  Write r^2_nm to file                      :                 F             |
 |  Write xyz WF centres to file              :                 F             |
 |  Write on-site energies <0n|H|0n> to file  :                 F             |
 |  Use guiding centre to control phases      :                 F             |
 |  Use phases for initial projections        :                 F             |
 *----------------------------------------------------------------------------*
 Time to read parameters        0.203 (sec)

 *---------------------------------- K-MESH ----------------------------------*
 +----------------------------------------------------------------------------+
 |                    Distance to Nearest-Neighbour Shells                    |
 |                    ------------------------------------                    |
 |          Shell             Distance (Ang^-1)          Multiplicity         |
 |          -----             -----------------          ------------         |
 |             1                   0.165705                      8            |
 |             2                   0.191340                      6            |
 |             3                   0.270596                     12            |
 |             4                   0.317301                     24            |
 |             5                   0.331411                      8            |
 |             6                   0.382680                      6            |
 |             7                   0.417016                     24            |
 |             8                   0.427849                     24            |
 |             9                   0.468685                     24            |
 |            10                   0.497116                     32            |
 |            11                   0.541191                     12            |
 |            12                   0.565991                     48            |
 |            13                   0.574020                     30            |
 |            14                   0.605070                     24            |
 |            15                   0.627350                     24            |
 |            16                   0.634603                     24            |
 |            17                   0.662821                      8            |
 |            18                   0.683220                     48            |
 |            19                   0.689886                     24            |
 |            20                   0.715929                     48            |
 |            21                   0.734855                     72            |
 |            22                   0.765360                      6            |
 |            23                   0.783093                     24            |
 |            24                   0.788915                     48            |
 |            25                   0.811787                     36            |
 |            26                   0.828526                     56            |
 |            27                   0.834032                     24            |
 |            28                   0.855698                     24            |
 |            29                   0.871595                     72            |
 |            30                   0.876830                     48            |
 |            31                   0.897464                     24            |
 |            32                   0.912634                     48            |
 |            33                   0.937371                     24            |
 |            34                   0.951904                     72            |
 |            35                   0.956700                     30            |
 |            36                   0.975646                     72            |
 +----------------------------------------------------------------------------+
 | The b-vectors are chosen automatically                                     |
 | The following shells are used:   1                                         |
 +----------------------------------------------------------------------------+
 |                        Shell   # Nearest-Neighbours                        |
 |                        -----   --------------------                        |
 |                          1               8                                 |
 +----------------------------------------------------------------------------+
 | Completeness relation is fully satisfied [Eq. (B1), PRB 56, 12847 (1997)]  |
 +----------------------------------------------------------------------------+
 |                  b_k Vectors (Ang^-1) and Weights (Ang^2)                  |
 |                  ----------------------------------------                  |
 |            No.         b_k(x)      b_k(y)      b_k(z)        w_b           |
 |            ---        --------------------------------     --------        |
 |             1        -0.095670    0.095670   -0.095670    13.657104        |
 |             2         0.095670    0.095670    0.095670    13.657104        |
 |             3        -0.095670   -0.095670    0.095670    13.657104        |
 |             4        -0.095670    0.095670    0.095670    13.657104        |
 |             5         0.095670   -0.095670    0.095670    13.657104        |
 |             6        -0.095670   -0.095670   -0.095670    13.657104        |
 |             7         0.095670    0.095670   -0.095670    13.657104        |
 |             8         0.095670   -0.095670   -0.095670    13.657104        |
 +----------------------------------------------------------------------------+
 |                           b_k Directions (Ang^-1)                          |
 |                           -----------------------                          |
 |            No.           x           y           z                         |
 |            ---        --------------------------------                     |
 |             1        -0.095670    0.095670   -0.095670                     |
 |             2         0.095670    0.095670    0.095670                     |
 |             3        -0.095670   -0.095670    0.095670                     |
 |             4        -0.095670    0.095670    0.095670                     |
 +----------------------------------------------------------------------------+
  
 Time to get kmesh              0.724 (sec)
 *============================================================================*
 |                              MEMORY ESTIMATE                               |
 |         Maximum RAM allocated during each phase of the calculation         |
 *============================================================================*
 |                            Wannierise:            7.00 Mb                  |
 |                          plot_wannier:            7.00 Mb                  |
 *----------------------------------------------------------------------------*
  
 Starting a new Wannier90 calculation ...


 Reading overlaps from mp-1550.mmn    :  Created on  8Apr2024 at 15:12:36

 Reading projections from mp-1550.amn :  Created on  8Apr2024 at 15:12:35  with SCDM

 Time to read overlaps          0.168 (sec)

 Writing checkpoint file mp-1550.chk... done

 
 *------------------------------- WANNIERISE ---------------------------------*
 +--------------------------------------------------------------------+<-- CONV
 | Iter  Delta Spread     RMS Gradient      Spread (Ang^2)      Time  |<-- CONV
 +--------------------------------------------------------------------+<-- CONV
 
 ------------------------------------------------------------------------------
 Initial State
  WF centre and spread    1  (  1.139522, -1.537717, -1.530571 )     3.68072558
  WF centre and spread    2  (  1.528294, -1.132128, -1.484113 )     3.69392730
  WF centre and spread    3  (  1.436429, -1.435035, -1.091897 )     3.76422519
  Sum of centres and spreads (  4.104245, -4.104880, -4.106582 )    11.13887806
 
      0     0.111E+02     0.0000000000       11.1388794305       0.00  <-- CONV
        O_D=      0.9569470 O_OD=      1.7105971 O_TOT=     11.1388794 <-- SPRD
 ------------------------------------------------------------------------------
 Cycle:      1
  WF centre and spread    1  (  1.151071, -1.535488, -1.528456 )     3.20424134
  WF centre and spread    2  (  1.525418, -1.142948, -1.479240 )     3.21913512
  WF centre and spread    3  (  1.427985, -1.426675, -1.098660 )     3.25390854
  Sum of centres and spreads (  4.104473, -4.105111, -4.106356 )     9.67728500
 
      1    -0.146E+01     0.3108359444        9.6772863686       0.01  <-- CONV
        O_D=      0.3723139 O_OD=      0.8336371 O_TOT=      9.6772864 <-- SPRD
 Delta: O_D= -0.5846331E+00 O_OD= -0.8769599E+00 O_TOT= -0.1461593E+01 <-- DLTA
 ------------------------------------------------------------------------------
 Cycle:      2
  WF centre and spread    1  (  1.160460, -1.531895, -1.525387 )     3.00440457
  WF centre and spread    2  (  1.521940, -1.151833, -1.475097 )     3.01430869
  WF centre and spread    3  (  1.422233, -1.421596, -1.106062 )     3.02321682
  Sum of centres and spreads (  4.104633, -4.105324, -4.106546 )     9.04193008
 
      2    -0.635E+00     0.3325287199        9.0419314508       0.01  <-- CONV
        O_D=      0.1130344 O_OD=      0.4575617 O_TOT=      9.0419315 <-- SPRD
 Delta: O_D= -0.2592795E+00 O_OD= -0.3760754E+00 O_TOT= -0.6353549E+00 <-- DLTA
 ------------------------------------------------------------------------------
 Cycle:      3
  WF centre and spread    1  (  1.163395, -1.530348, -1.524063 )     2.94650479
  WF centre and spread    2  (  1.520529, -1.154683, -1.473855 )     2.95407775
  WF centre and spread    3  (  1.420845, -1.420477, -1.108889 )     2.95251446
  Sum of centres and spreads (  4.104769, -4.105507, -4.106807 )     8.85309700
 
      3    -0.189E+00     0.2201337755        8.8530983656       0.02  <-- CONV
        O_D=      0.0406586 O_OD=      0.3411044 O_TOT=      8.8530984 <-- SPRD
 Delta: O_D= -0.7237576E-01 O_OD= -0.1164573E+00 O_TOT= -0.1888331E+00 <-- DLTA
 ------------------------------------------------------------------------------
 Cycle:      4
  WF centre and spread    1  (  1.164206, -1.529818, -1.523598 )     2.92766712
  WF centre and spread    2  (  1.520061, -1.155484, -1.473601 )     2.93527859
  WF centre and spread    3  (  1.420623, -1.420352, -1.109811 )     2.93268112
  Sum of centres and spreads (  4.104890, -4.105654, -4.107009 )     8.79562682
 
      4    -0.575E-01     0.1385507295        8.7956281931       0.02  <-- CONV
        O_D=      0.0229827 O_OD=      0.3013102 O_TOT=      8.7956282 <-- SPRD
 Delta: O_D= -0.1767597E-01 O_OD= -0.3979420E-01 O_TOT= -0.5747017E-01 <-- DLTA
 ------------------------------------------------------------------------------
 Cycle:      5
  WF centre and spread    1  (  1.164625, -1.529554, -1.523344 )     2.91688090
  WF centre and spread    2  (  1.519829, -1.155886, -1.473539 )     2.92504539
  WF centre and spread    3  (  1.420554, -1.420346, -1.110301 )     2.92329092
  Sum of centres and spreads (  4.105008, -4.105786, -4.107185 )     8.76521721
 
      5    -0.304E-01     0.1032468440        8.7652185796       0.03  <-- CONV
        O_D=      0.0143700 O_OD=      0.2795132 O_TOT=      8.7652186 <-- SPRD
 Delta: O_D= -0.8612670E-02 O_OD= -0.2179694E-01 O_TOT= -0.3040961E-01 <-- DLTA
 ------------------------------------------------------------------------------
 Cycle:      6
  WF centre and spread    1  (  1.164798, -1.529474, -1.523244 )     2.91224348
  WF centre and spread    2  (  1.519754, -1.156035, -1.473561 )     2.92099536
  WF centre and spread    3  (  1.420527, -1.420351, -1.110469 )     2.92043490
  Sum of centres and spreads (  4.105078, -4.105859, -4.107274 )     8.75367374
 
      6    -0.115E-01     0.0667401769        8.7536751043       0.04  <-- CONV
        O_D=      0.0112438 O_OD=      0.2710960 O_TOT=      8.7536751 <-- SPRD
 Delta: O_D= -0.3126236E-02 O_OD= -0.8417239E-02 O_TOT= -0.1154348E-01 <-- DLTA
 ------------------------------------------------------------------------------
 Cycle:      7
  WF centre and spread    1  (  1.164819, -1.529469, -1.523222 )     2.91092430
  WF centre and spread    2  (  1.519747, -1.156047, -1.473580 )     2.91984927
  WF centre and spread    3  (  1.420522, -1.420350, -1.110473 )     2.91960261
  Sum of centres and spreads (  4.105088, -4.105865, -4.107275 )     8.75037617
 
      7    -0.330E-02     0.0406847543        8.7503775400       0.04  <-- CONV
        O_D=      0.0101746 O_OD=      0.2688676 O_TOT=      8.7503775 <-- SPRD
 Delta: O_D= -0.1069213E-02 O_OD= -0.2228351E-02 O_TOT= -0.3297564E-02 <-- DLTA
 ------------------------------------------------------------------------------
 Cycle:      8
  WF centre and spread    1  (  1.164879, -1.529456, -1.523164 )     2.90929073
  WF centre and spread    2  (  1.519729, -1.156080, -1.473626 )     2.91876099
  WF centre and spread    3  (  1.420504, -1.420344, -1.110490 )     2.91950441
  Sum of centres and spreads (  4.105112, -4.105880, -4.107279 )     8.74755613
 
      8    -0.282E-02     0.0282686005        8.7475575027       0.05  <-- CONV
        O_D=      0.0096764 O_OD=      0.2665458 O_TOT=      8.7475575 <-- SPRD
 Delta: O_D= -0.4981502E-03 O_OD= -0.2321887E-02 O_TOT= -0.2820037E-02 <-- DLTA
 ------------------------------------------------------------------------------
 Cycle:      9
  WF centre and spread    1  (  1.164957, -1.529438, -1.523087 )     2.90787717
  WF centre and spread    2  (  1.519704, -1.156128, -1.473679 )     2.91795451
  WF centre and spread    3  (  1.420475, -1.420330, -1.110520 )     2.91986870
  Sum of centres and spreads (  4.105137, -4.105896, -4.107286 )     8.74570038
 
      9    -0.186E-02     0.0238212943        8.7457017458       0.05  <-- CONV
        O_D=      0.0094191 O_OD=      0.2649473 O_TOT=      8.7457017 <-- SPRD
 Delta: O_D= -0.2573310E-03 O_OD= -0.1598426E-02 O_TOT= -0.1855757E-02 <-- DLTA
 ------------------------------------------------------------------------------
 Cycle:     10
  WF centre and spread    1  (  1.165070, -1.529411, -1.522971 )     2.90639457
  WF centre and spread    2  (  1.519666, -1.156201, -1.473753 )     2.91717427
  WF centre and spread    3  (  1.420429, -1.420303, -1.110574 )     2.92052180
  Sum of centres and spreads (  4.105165, -4.105915, -4.107299 )     8.74409063
 
     10    -0.161E-02     0.0199663367        8.7440920007       0.06  <-- CONV
        O_D=      0.0091984 O_OD=      0.2635583 O_TOT=      8.7440920 <-- SPRD
 Delta: O_D= -0.2207233E-03 O_OD= -0.1389022E-02 O_TOT= -0.1609745E-02 <-- DLTA
 ------------------------------------------------------------------------------
 Cycle:     11
  WF centre and spread    1  (  1.165156, -1.529388, -1.522871 )     2.90550108
  WF centre and spread    2  (  1.519635, -1.156259, -1.473814 )     2.91670874
  WF centre and spread    3  (  1.420390, -1.420279, -1.110626 )     2.92098365
  Sum of centres and spreads (  4.105181, -4.105927, -4.107311 )     8.74319346
 
     11    -0.897E-03     0.0174535645        8.7431948313       0.06  <-- CONV
        O_D=      0.0089631 O_OD=      0.2628964 O_TOT=      8.7431948 <-- SPRD
 Delta: O_D= -0.2352654E-03 O_OD= -0.6619041E-03 O_TOT= -0.8971695E-03 <-- DLTA
 ------------------------------------------------------------------------------
 Cycle:     12
  WF centre and spread    1  (  1.165206, -1.529374, -1.522796 )     2.90508696
  WF centre and spread    2  (  1.519614, -1.156293, -1.473858 )     2.91648420
  WF centre and spread    3  (  1.420367, -1.420264, -1.110665 )     2.92122207
  Sum of centres and spreads (  4.105187, -4.105931, -4.107319 )     8.74279323
 
     12    -0.400E-03     0.0128009578        8.7427945961       0.06  <-- CONV
        O_D=      0.0088288 O_OD=      0.2626305 O_TOT=      8.7427946 <-- SPRD
 Delta: O_D= -0.1342844E-03 O_OD= -0.2659507E-03 O_TOT= -0.4002351E-03 <-- DLTA
 ------------------------------------------------------------------------------
 Cycle:     13
  WF centre and spread    1  (  1.165211, -1.529370, -1.522770 )     2.90503884
  WF centre and spread    2  (  1.519610, -1.156296, -1.473873 )     2.91642864
  WF centre and spread    3  (  1.420365, -1.420263, -1.110677 )     2.92118542
  Sum of centres and spreads (  4.105185, -4.105930, -4.107320 )     8.74265289
 
     13    -0.140E-03     0.0083010907        8.7426542631       0.07  <-- CONV
        O_D=      0.0087827 O_OD=      0.2625362 O_TOT=      8.7426543 <-- SPRD
 Delta: O_D= -0.4607905E-04 O_OD= -0.9425399E-04 O_TOT= -0.1403330E-03 <-- DLTA
 ------------------------------------------------------------------------------
 Cycle:     14
  WF centre and spread    1  (  1.165221, -1.529363, -1.522710 )     2.90499103
  WF centre and spread    2  (  1.519601, -1.156303, -1.473911 )     2.91636633
  WF centre and spread    3  (  1.420361, -1.420261, -1.110702 )     2.92118086
  Sum of centres and spreads (  4.105183, -4.105927, -4.107322 )     8.74253822
 
     14    -0.115E-03     0.0059445883        8.7425395865       0.07  <-- CONV
        O_D=      0.0087584 O_OD=      0.2624458 O_TOT=      8.7425396 <-- SPRD
 Delta: O_D= -0.2430610E-04 O_OD= -0.9037053E-04 O_TOT= -0.1146766E-03 <-- DLTA
 ------------------------------------------------------------------------------
 Cycle:     15
  WF centre and spread    1  (  1.165232, -1.529356, -1.522623 )     2.90494386
  WF centre and spread    2  (  1.519591, -1.156307, -1.473970 )     2.91630073
  WF centre and spread    3  (  1.420360, -1.420262, -1.110734 )     2.92120640
  Sum of centres and spreads (  4.105183, -4.105926, -4.107326 )     8.74245099
 
     15    -0.872E-04     0.0049567027        8.7424523631       0.08  <-- CONV
        O_D=      0.0087456 O_OD=      0.2623715 O_TOT=      8.7424524 <-- SPRD
 Delta: O_D= -0.1286505E-04 O_OD= -0.7435828E-04 O_TOT= -0.8722332E-04 <-- DLTA
 ------------------------------------------------------------------------------
 Cycle:     16
  WF centre and spread    1  (  1.165237, -1.529352, -1.522515 )     2.90489605
  WF centre and spread    2  (  1.519582, -1.156305, -1.474049 )     2.91623061
  WF centre and spread    3  (  1.420367, -1.420269, -1.110766 )     2.92125517
  Sum of centres and spreads (  4.105186, -4.105927, -4.107330 )     8.74238183
 
     16    -0.692E-04     0.0044155939        8.7423832022       0.08  <-- CONV
        O_D=      0.0087353 O_OD=      0.2623126 O_TOT=      8.7423832 <-- SPRD
 Delta: O_D= -0.1028930E-04 O_OD= -0.5887164E-04 O_TOT= -0.6916094E-04 <-- DLTA
 ------------------------------------------------------------------------------
 Cycle:     17
  WF centre and spread    1  (  1.165231, -1.529353, -1.522400 )     2.90485252
  WF centre and spread    2  (  1.519578, -1.156293, -1.474143 )     2.91616314
  WF centre and spread    3  (  1.420383, -1.420284, -1.110791 )     2.92131605
  Sum of centres and spreads (  4.105192, -4.105930, -4.107334 )     8.74233172
 
     17    -0.501E-04     0.0037751819        8.7423330851       0.09  <-- CONV
        O_D=      0.0087267 O_OD=      0.2622710 O_TOT=      8.7423331 <-- SPRD
 Delta: O_D= -0.8555563E-05 O_OD= -0.4156156E-04 O_TOT= -0.5011712E-04 <-- DLTA
 ------------------------------------------------------------------------------
 Cycle:     18
  WF centre and spread    1  (  1.165211, -1.529359, -1.522258 )     2.90480732
  WF centre and spread    2  (  1.519577, -1.156266, -1.474267 )     2.91608502
  WF centre and spread    3  (  1.420415, -1.420311, -1.110814 )     2.92139408
  Sum of centres and spreads (  4.105202, -4.105935, -4.107340 )     8.74228642
 
     18    -0.453E-04     0.0034881489        8.7422877854       0.09  <-- CONV
        O_D=      0.0087225 O_OD=      0.2622300 O_TOT=      8.7422878 <-- SPRD
 Delta: O_D= -0.4237552E-05 O_OD= -0.4106217E-04 O_TOT= -0.4529973E-04 <-- DLTA
 ------------------------------------------------------------------------------
 Cycle:     19
  WF centre and spread    1  (  1.165200, -1.529362, -1.522238 )     2.90479802
  WF centre and spread    2  (  1.519578, -1.156255, -1.474289 )     2.91606684
  WF centre and spread    3  (  1.420425, -1.420319, -1.110814 )     2.92139078
  Sum of centres and spreads (  4.105203, -4.105936, -4.107341 )     8.74225564
 
     19    -0.308E-04     0.0039166637        8.7422570066       0.09  <-- CONV
        O_D=      0.0087133 O_OD=      0.2622084 O_TOT=      8.7422570 <-- SPRD
 Delta: O_D= -0.9213245E-05 O_OD= -0.2156552E-04 O_TOT= -0.3077877E-04 <-- DLTA
 ------------------------------------------------------------------------------
 Cycle:     20
  WF centre and spread    1  (  1.165170, -1.529369, -1.522179 )     2.90479064
  WF centre and spread    2  (  1.519583, -1.156227, -1.474349 )     2.91603541
  WF centre and spread    3  (  1.420453, -1.420341, -1.110814 )     2.92140172
  Sum of centres and spreads (  4.105206, -4.105937, -4.107342 )     8.74222777
 
     20    -0.279E-04     0.0027042211        8.7422291383       0.10  <-- CONV
        O_D=      0.0087118 O_OD=      0.2621819 O_TOT=      8.7422291 <-- SPRD
 Delta: O_D= -0.1404679E-05 O_OD= -0.2646361E-04 O_TOT= -0.2786829E-04 <-- DLTA
 ------------------------------------------------------------------------------
 Cycle:     21
  WF centre and spread    1  (  1.165106, -1.529383, -1.522046 )     2.90478643
  WF centre and spread    2  (  1.519591, -1.156166, -1.474482 )     2.91597544
  WF centre and spread    3  (  1.420515, -1.420390, -1.110816 )     2.92142832
  Sum of centres and spreads (  4.105212, -4.105939, -4.107345 )     8.74219019
 
     21    -0.376E-04     0.0027449492        8.7421915575       0.10  <-- CONV
        O_D=      0.0087139 O_OD=      0.2621423 O_TOT=      8.7421916 <-- SPRD
 Delta: O_D=  0.2051761E-05 O_OD= -0.3963257E-04 O_TOT= -0.3758081E-04 <-- DLTA
 ------------------------------------------------------------------------------
 Cycle:     22
  WF centre and spread    1  (  1.165005, -1.529403, -1.521826 )     2.90479219
  WF centre and spread    2  (  1.519602, -1.156070, -1.474697 )     2.91588482
  WF centre and spread    3  (  1.420613, -1.420467, -1.110825 )     2.92146472
  Sum of centres and spreads (  4.105220, -4.105940, -4.107348 )     8.74214174
 
     22    -0.485E-04     0.0033151741        8.7421431046       0.10  <-- CONV
        O_D=      0.0087163 O_OD=      0.2620915 O_TOT=      8.7421431 <-- SPRD
 Delta: O_D=  0.2364489E-05 O_OD= -0.5081740E-04 O_TOT= -0.4845291E-04 <-- DLTA
 ------------------------------------------------------------------------------
 Cycle:     23
  WF centre and spread    1  (  1.164857, -1.529426, -1.521484 )     2.90481761
  WF centre and spread    2  (  1.519614, -1.155932, -1.475021 )     2.91575607
  WF centre and spread    3  (  1.420760, -1.420583, -1.110847 )     2.92150485
  Sum of centres and spreads (  4.105230, -4.105941, -4.107352 )     8.74207853
 
     23    -0.632E-04     0.0036496447        8.7420798970       0.11  <-- CONV
        O_D=      0.0087216 O_OD=      0.2620229 O_TOT=      8.7420799 <-- SPRD
 Delta: O_D=  0.5366692E-05 O_OD= -0.6857430E-04 O_TOT= -0.6320761E-04 <-- DLTA
 ------------------------------------------------------------------------------
 Cycle:     24
  WF centre and spread    1  (  1.164651, -1.529450, -1.520987 )     2.90487063
  WF centre and spread    2  (  1.519624, -1.155743, -1.475481 )     2.91558111
  WF centre and spread    3  (  1.420966, -1.420745, -1.110886 )     2.92154440
  Sum of centres and spreads (  4.105241, -4.105938, -4.107355 )     8.74199613
 
     24    -0.824E-04     0.0044332952        8.7419974992       0.11  <-- CONV
        O_D=      0.0087386 O_OD=      0.2619236 O_TOT=      8.7419975 <-- SPRD
 Delta: O_D=  0.1691897E-04 O_OD= -0.9931671E-04 O_TOT= -0.8239774E-04 <-- DLTA
 ------------------------------------------------------------------------------
 Cycle:     25
  WF centre and spread    1  (  1.164644, -1.529448, -1.520965 )     2.90485765
  WF centre and spread    2  (  1.519622, -1.155738, -1.475498 )     2.91555449
  WF centre and spread    3  (  1.420974, -1.420751, -1.110891 )     2.92150967
  Sum of centres and spreads (  4.105240, -4.105936, -4.107354 )     8.74192182
 
     25    -0.743E-04     0.0061955057        8.7419231853       0.11  <-- CONV
        O_D=      0.0087144 O_OD=      0.2618735 O_TOT=      8.7419232 <-- SPRD
 Delta: O_D= -0.2419870E-04 O_OD= -0.5011526E-04 O_TOT= -0.7431396E-04 <-- DLTA
 ------------------------------------------------------------------------------
 Cycle:     26
  WF centre and spread    1  (  1.164627, -1.529443, -1.520910 )     2.90486377
  WF centre and spread    2  (  1.519618, -1.155725, -1.475540 )     2.91552951
  WF centre and spread    3  (  1.420992, -1.420766, -1.110902 )     2.92147091
  Sum of centres and spreads (  4.105237, -4.105933, -4.107352 )     8.74186419
 
     26    -0.576E-04     0.0042285272        8.7418655593       0.12  <-- CONV
        O_D=      0.0087045 O_OD=      0.2618257 O_TOT=      8.7418656 <-- SPRD
 Delta: O_D= -0.9864963E-05 O_OD= -0.4776101E-04 O_TOT= -0.5762597E-04 <-- DLTA
 ------------------------------------------------------------------------------
 Cycle:     27
  WF centre and spread    1  (  1.164599, -1.529437, -1.520825 )     2.90488566
  WF centre and spread    2  (  1.519614, -1.155702, -1.475607 )     2.91550426
  WF centre and spread    3  (  1.421023, -1.420790, -1.110917 )     2.92142873
  Sum of centres and spreads (  4.105235, -4.105929, -4.107349 )     8.74181865
 
     27    -0.455E-04     0.0035060395        8.7418200188       0.12  <-- CONV
        O_D=      0.0086996 O_OD=      0.2617851 O_TOT=      8.7418200 <-- SPRD
 Delta: O_D= -0.4908352E-05 O_OD= -0.4063215E-04 O_TOT= -0.4554051E-04 <-- DLTA
 ------------------------------------------------------------------------------
 Cycle:     28
  WF centre and spread    1  (  1.164561, -1.529433, -1.520724 )     2.90491531
  WF centre and spread    2  (  1.519611, -1.155670, -1.475693 )     2.91547752
  WF centre and spread    3  (  1.421064, -1.420823, -1.110931 )     2.92139023
  Sum of centres and spreads (  4.105235, -4.105926, -4.107348 )     8.74178307
 
     28    -0.356E-04     0.0032233237        8.7417844362       0.12  <-- CONV
        O_D=      0.0086949 O_OD=      0.2617542 O_TOT=      8.7417844 <-- SPRD
 Delta: O_D= -0.4710244E-05 O_OD= -0.3087236E-04 O_TOT= -0.3558260E-04 <-- DLTA
 ------------------------------------------------------------------------------
 Cycle:     29
  WF centre and spread    1  (  1.164515, -1.529432, -1.520614 )     2.90494449
  WF centre and spread    2  (  1.519610, -1.155631, -1.475791 )     2.91544882
  WF centre and spread    3  (  1.421112, -1.420862, -1.110942 )     2.92136407
  Sum of centres and spreads (  4.105237, -4.105925, -4.107348 )     8.74175738
 
     29    -0.257E-04     0.0026770992        8.7417587472       0.13  <-- CONV
        O_D=      0.0086934 O_OD=      0.2617300 O_TOT=      8.7417587 <-- SPRD
 Delta: O_D= -0.1448454E-05 O_OD= -0.2424054E-04 O_TOT= -0.2568899E-04 <-- DLTA
 ------------------------------------------------------------------------------
 Cycle:     30
  WF centre and spread    1  (  1.164447, -1.529434, -1.520461 )     2.90497880
  WF centre and spread    2  (  1.519611, -1.155572, -1.475934 )     2.91540581
  WF centre and spread    3  (  1.421183, -1.420919, -1.110953 )     2.92134628
  Sum of centres and spreads (  4.105241, -4.105925, -4.107349 )     8.74173089
 
     30    -0.265E-04     0.0025364342        8.7417322551       0.13  <-- CONV
        O_D=      0.0086986 O_OD=      0.2616983 O_TOT=      8.7417323 <-- SPRD
 Delta: O_D=  0.5154388E-05 O_OD= -0.3164649E-04 O_TOT= -0.2649210E-04 <-- DLTA
 ------------------------------------------------------------------------------
 Cycle:     31
  WF centre and spread    1  (  1.164437, -1.529435, -1.520441 )     2.90497192
  WF centre and spread    2  (  1.519612, -1.155563, -1.475954 )     2.91539028
  WF centre and spread    3  (  1.421193, -1.420927, -1.110953 )     2.92134404
  Sum of centres and spreads (  4.105242, -4.105925, -4.107349 )     8.74170625
 
     31    -0.246E-04     0.0034947193        8.7417076135       0.13  <-- CONV
        O_D=      0.0086914 O_OD=      0.2616809 O_TOT=      8.7417076 <-- SPRD
 Delta: O_D= -0.7197463E-05 O_OD= -0.1744413E-04 O_TOT= -0.2464160E-04 <-- DLTA
 ------------------------------------------------------------------------------
 Cycle:     32
  WF centre and spread    1  (  1.164406, -1.529439, -1.520383 )     2.90496773
  WF centre and spread    2  (  1.519614, -1.155537, -1.476013 )     2.91536131
  WF centre and spread    3  (  1.421223, -1.420951, -1.110954 )     2.92135333
  Sum of centres and spreads (  4.105244, -4.105926, -4.107350 )     8.74168236
 
     32    -0.239E-04     0.0024515506        8.7416837305       0.14  <-- CONV
        O_D=      0.0086907 O_OD=      0.2616577 O_TOT=      8.7416837 <-- SPRD
 Delta: O_D= -0.6891107E-06 O_OD= -0.2319392E-04 O_TOT= -0.2388303E-04 <-- DLTA
 ------------------------------------------------------------------------------
 Cycle:     33
  WF centre and spread    1  (  1.164341, -1.529444, -1.520251 )     2.90496949
  WF centre and spread    2  (  1.519618, -1.155479, -1.476143 )     2.91530590
  WF centre and spread    3  (  1.421288, -1.421002, -1.110959 )     2.92137362
  Sum of centres and spreads (  4.105248, -4.105926, -4.107353 )     8.74164901
 
     33    -0.334E-04     0.0025834159        8.7416503755       0.14  <-- CONV
        O_D=      0.0086927 O_OD=      0.2616224 O_TOT=      8.7416504 <-- SPRD
 Delta: O_D=  0.1991861E-05 O_OD= -0.3534681E-04 O_TOT= -0.3335495E-04 <-- DLTA
 ------------------------------------------------------------------------------
 Cycle:     34
  WF centre and spread    1  (  1.164240, -1.529450, -1.520037 )     2.90498426
  WF centre and spread    2  (  1.519623, -1.155392, -1.476348 )     2.91522529
  WF centre and spread    3  (  1.421391, -1.421084, -1.110970 )     2.92139704
  Sum of centres and spreads (  4.105254, -4.105926, -4.107355 )     8.74160660
 
     34    -0.424E-04     0.0031051606        8.7416079691       0.14  <-- CONV
        O_D=      0.0086942 O_OD=      0.2615784 O_TOT=      8.7416080 <-- SPRD
 Delta: O_D=  0.1541470E-05 O_OD= -0.4394788E-04 O_TOT= -0.4240641E-04 <-- DLTA
 ------------------------------------------------------------------------------
 Cycle:     35
  WF centre and spread    1  (  1.164100, -1.529453, -1.519724 )     2.90502002
  WF centre and spread    2  (  1.519625, -1.155272, -1.476643 )     2.91511818
  WF centre and spread    3  (  1.421537, -1.421201, -1.110991 )     2.92141574
  Sum of centres and spreads (  4.105262, -4.105926, -4.107358 )     8.74155394
 
     35    -0.527E-04     0.0033910064        8.7415553106       0.15  <-- CONV
        O_D=      0.0086989 O_OD=      0.2615211 O_TOT=      8.7415553 <-- SPRD
 Delta: O_D=  0.4696263E-05 O_OD= -0.5735481E-04 O_TOT= -0.5265855E-04 <-- DLTA
 ------------------------------------------------------------------------------
 Cycle:     36
  WF centre and spread    1  (  1.163915, -1.529450, -1.519292 )     2.90508185
  WF centre and spread    2  (  1.519624, -1.155116, -1.477040 )     2.91498150
  WF centre and spread    3  (  1.421732, -1.421357, -1.111028 )     2.92142570
  Sum of centres and spreads (  4.105271, -4.105923, -4.107359 )     8.74148905
 
     36    -0.649E-04     0.0039779128        8.7414904207       0.15  <-- CONV
        O_D=      0.0087145 O_OD=      0.2614406 O_TOT=      8.7414904 <-- SPRD
 Delta: O_D=  0.1557331E-04 O_OD= -0.8046322E-04 O_TOT= -0.6488991E-04 <-- DLTA
 ------------------------------------------------------------------------------
 Cycle:     37
  WF centre and spread    1  (  1.163909, -1.529447, -1.519271 )     2.90507121
  WF centre and spread    2  (  1.519622, -1.155112, -1.477055 )     2.91495950
  WF centre and spread    3  (  1.421739, -1.421363, -1.111032 )     2.92139749
  Sum of centres and spreads (  4.105270, -4.105922, -4.107358 )     8.74142820
 
     37    -0.609E-04     0.0056104531        8.7414295664       0.15  <-- CONV
        O_D=      0.0086943 O_OD=      0.2614000 O_TOT=      8.7414296 <-- SPRD
 Delta: O_D= -0.2023764E-04 O_OD= -0.4061659E-04 O_TOT= -0.6085423E-04 <-- DLTA
 ------------------------------------------------------------------------------
 Cycle:     38
  WF centre and spread    1  (  1.163894, -1.529441, -1.519220 )     2.90507641
  WF centre and spread    2  (  1.519618, -1.155100, -1.477094 )     2.91493775
  WF centre and spread    3  (  1.421756, -1.421378, -1.111042 )     2.92136508
  Sum of centres and spreads (  4.105269, -4.105919, -4.107357 )     8.74137923
 
     38    -0.490E-04     0.0038511769        8.7413806020       0.15  <-- CONV
        O_D=      0.0086857 O_OD=      0.2613596 O_TOT=      8.7413806 <-- SPRD
 Delta: O_D= -0.8582328E-05 O_OD= -0.4038211E-04 O_TOT= -0.4896444E-04 <-- DLTA
 ------------------------------------------------------------------------------
 Cycle:     39
  WF centre and spread    1  (  1.163868, -1.529433, -1.519142 )     2.90509437
  WF centre and spread    2  (  1.519614, -1.155080, -1.477157 )     2.91491468
  WF centre and spread    3  (  1.421786, -1.421403, -1.111055 )     2.92133092
  Sum of centres and spreads (  4.105268, -4.105917, -4.107355 )     8.74133997
 
     39    -0.393E-04     0.0032628793        8.7413413380       0.16  <-- CONV
        O_D=      0.0086809 O_OD=      0.2613251 O_TOT=      8.7413413 <-- SPRD
 Delta: O_D= -0.4729793E-05 O_OD= -0.3453421E-04 O_TOT= -0.3926400E-04 <-- DLTA
 ------------------------------------------------------------------------------
 Cycle:     40
  WF centre and spread    1  (  1.163834, -1.529426, -1.519048 )     2.90511806
  WF centre and spread    2  (  1.519610, -1.155053, -1.477237 )     2.91488935
  WF centre and spread    3  (  1.421825, -1.421436, -1.111069 )     2.92130207
  Sum of centres and spreads (  4.105269, -4.105915, -4.107353 )     8.74130949
 
     40    -0.305E-04     0.0029728527        8.7413108558       0.16  <-- CONV
        O_D=      0.0086765 O_OD=      0.2612990 O_TOT=      8.7413109 <-- SPRD
 Delta: O_D= -0.4419379E-05 O_OD= -0.2606278E-04 O_TOT= -0.3048216E-04 <-- DLTA
 ------------------------------------------------------------------------------
 Cycle:     41
  WF centre and spread    1  (  1.163794, -1.529421, -1.518948 )     2.90514033
  WF centre and spread    2  (  1.519609, -1.155021, -1.477326 )     2.91486148
  WF centre and spread    3  (  1.421869, -1.421473, -1.111080 )     2.92128591
  Sum of centres and spreads (  4.105272, -4.105915, -4.107354 )     8.74128772
 
     41    -0.218E-04     0.0024821981        8.7412890858       0.16  <-- CONV
        O_D=      0.0086752 O_OD=      0.2612785 O_TOT=      8.7412891 <-- SPRD
 Delta: O_D= -0.1313545E-05 O_OD= -0.2045649E-04 O_TOT= -0.2177003E-04 <-- DLTA
 ------------------------------------------------------------------------------
 Cycle:     42
  WF centre and spread    1  (  1.163735, -1.529416, -1.518811 )     2.90516497
  WF centre and spread    2  (  1.519607, -1.154972, -1.477452 )     2.91482048
  WF centre and spread    3  (  1.421934, -1.421527, -1.111091 )     2.92128065
  Sum of centres and spreads (  4.105276, -4.105915, -4.107355 )     8.74126609
 
     42    -0.216E-04     0.0023104086        8.7412674598       0.17  <-- CONV
        O_D=      0.0086796 O_OD=      0.2612525 O_TOT=      8.7412675 <-- SPRD
 Delta: O_D=  0.4407784E-05 O_OD= -0.2603379E-04 O_TOT= -0.2162600E-04 <-- DLTA
 ------------------------------------------------------------------------------
 Cycle:     43
  WF centre and spread    1  (  1.163725, -1.529416, -1.518793 )     2.90515926
  WF centre and spread    2  (  1.519608, -1.154964, -1.477470 )     2.91480667
  WF centre and spread    3  (  1.421943, -1.421534, -1.111092 )     2.92127963
  Sum of centres and spreads (  4.105276, -4.105915, -4.107355 )     8.74124555
 
     43    -0.205E-04     0.0031878835        8.7412469233       0.17  <-- CONV
        O_D=      0.0086735 O_OD=      0.2612380 O_TOT=      8.7412469 <-- SPRD
 Delta: O_D= -0.6070251E-05 O_OD= -0.1446626E-04 O_TOT= -0.2053651E-04 <-- DLTA
 ------------------------------------------------------------------------------
 Cycle:     44
  WF centre and spread    1  (  1.163697, -1.529416, -1.518737 )     2.90515612
  WF centre and spread    2  (  1.519608, -1.154941, -1.477525 )     2.91477950
  WF centre and spread    3  (  1.421973, -1.421558, -1.111094 )     2.92128933
  Sum of centres and spreads (  4.105277, -4.105915, -4.107356 )     8.74122496
 
     44    -0.206E-04     0.0022526696        8.7412263251       0.17  <-- CONV
        O_D=      0.0086730 O_OD=      0.2612180 O_TOT=      8.7412263 <-- SPRD
 Delta: O_D= -0.5597658E-06 O_OD= -0.2003840E-04 O_TOT= -0.2059817E-04 <-- DLTA
 ------------------------------------------------------------------------------
 Cycle:     45
  WF centre and spread    1  (  1.163636, -1.529414, -1.518612 )     2.90515953
  WF centre and spread    2  (  1.519609, -1.154891, -1.477646 )     2.91472808
  WF centre and spread    3  (  1.422036, -1.421610, -1.111100 )     2.92130854
  Sum of centres and spreads (  4.105281, -4.105915, -4.107357 )     8.74119615
 
     45    -0.288E-04     0.0024123195        8.7411975142       0.17  <-- CONV
        O_D=      0.0086749 O_OD=      0.2611873 O_TOT=      8.7411975 <-- SPRD
 Delta: O_D=  0.1918850E-05 O_OD= -0.3072973E-04 O_TOT= -0.2881088E-04 <-- DLTA
 ------------------------------------------------------------------------------
 Cycle:     46
  WF centre and spread    1  (  1.163542, -1.529409, -1.518411 )     2.90517670
  WF centre and spread    2  (  1.519608, -1.154814, -1.477836 )     2.91465414
  WF centre and spread    3  (  1.422136, -1.421692, -1.111113 )     2.92132870
  Sum of centres and spreads (  4.105286, -4.105915, -4.107360 )     8.74115954
 
     46    -0.366E-04     0.0028731647        8.7411609097       0.18  <-- CONV
        O_D=      0.0086766 O_OD=      0.2611490 O_TOT=      8.7411609 <-- SPRD
 Delta: O_D=  0.1672683E-05 O_OD= -0.3827725E-04 O_TOT= -0.3660456E-04 <-- DLTA
 ------------------------------------------------------------------------------
 Cycle:     47
  WF centre and spread    1  (  1.163411, -1.529397, -1.518119 )     2.90521511
  WF centre and spread    2  (  1.519605, -1.154709, -1.478107 )     2.91455782
  WF centre and spread    3  (  1.422278, -1.421808, -1.111136 )     2.92134155
  Sum of centres and spreads (  4.105294, -4.105914, -4.107362 )     8.74111448
 
     47    -0.451E-04     0.0031545287        8.7411158449       0.18  <-- CONV
        O_D=      0.0086810 O_OD=      0.2610995 O_TOT=      8.7411158 <-- SPRD
 Delta: O_D=  0.4448781E-05 O_OD= -0.4951354E-04 O_TOT= -0.4506476E-04 <-- DLTA
 ------------------------------------------------------------------------------
 Cycle:     48
  WF centre and spread    1  (  1.163244, -1.529375, -1.517730 )     2.90527783
  WF centre and spread    2  (  1.519596, -1.154578, -1.478461 )     2.91443959
  WF centre and spread    3  (  1.422463, -1.421960, -1.111172 )     2.92134327
  Sum of centres and spreads (  4.105303, -4.105912, -4.107363 )     8.74106069
 
     48    -0.538E-04     0.0036489409        8.7410620575       0.18  <-- CONV
        O_D=      0.0086946 O_OD=      0.2610321 O_TOT=      8.7410621 <-- SPRD
 Delta: O_D=  0.1356152E-04 O_OD= -0.6734889E-04 O_TOT= -0.5378736E-04 <-- DLTA
 ------------------------------------------------------------------------------
 Cycle:     49
  WF centre and spread    1  (  1.163238, -1.529371, -1.517711 )     2.90526937
  WF centre and spread    2  (  1.519595, -1.154574, -1.478476 )     2.91442121
  WF centre and spread    3  (  1.422470, -1.421966, -1.111175 )     2.92131913
  Sum of centres and spreads (  4.105302, -4.105911, -4.107362 )     8.74100971
 
     49    -0.510E-04     0.0051363147        8.7410110753       0.18  <-- CONV
        O_D=      0.0086771 O_OD=      0.2609986 O_TOT=      8.7410111 <-- SPRD
 Delta: O_D= -0.1745295E-04 O_OD= -0.3352923E-04 O_TOT= -0.5098218E-04 <-- DLTA
 ------------------------------------------------------------------------------
 Cycle:     50
  WF centre and spread    1  (  1.163222, -1.529364, -1.517663 )     2.90527503
  WF centre and spread    2  (  1.519591, -1.154563, -1.478513 )     2.91440266
  WF centre and spread    3  (  1.422488, -1.421982, -1.111184 )     2.92128999
  Sum of centres and spreads (  4.105301, -4.105909, -4.107360 )     8.74096767
 
     50    -0.420E-04     0.0035407795        8.7409690418       0.19  <-- CONV
        O_D=      0.0086693 O_OD=      0.2609644 O_TOT=      8.7409690 <-- SPRD
 Delta: O_D= -0.7819532E-05 O_OD= -0.3421400E-04 O_TOT= -0.4203354E-04 <-- DLTA
 ------------------------------------------------------------------------------
 Cycle:     51
  WF centre and spread    1  (  1.163197, -1.529353, -1.517590 )     2.90529185
  WF centre and spread    2  (  1.519585, -1.154545, -1.478572 )     2.91438275
  WF centre and spread    3  (  1.422518, -1.422009, -1.111196 )     2.92125926
  Sum of centres and spreads (  4.105301, -4.105907, -4.107359 )     8.74093386
 
     51    -0.338E-04     0.0030367022        8.7409352332       0.19  <-- CONV
        O_D=      0.0086649 O_OD=      0.2609350 O_TOT=      8.7409352 <-- SPRD
 Delta: O_D= -0.4461714E-05 O_OD= -0.2934685E-04 O_TOT= -0.3380857E-04 <-- DLTA
 ------------------------------------------------------------------------------
 Cycle:     52
  WF centre and spread    1  (  1.163164, -1.529343, -1.517503 )     2.90531349
  WF centre and spread    2  (  1.519581, -1.154520, -1.478646 )     2.91436049
  WF centre and spread    3  (  1.422557, -1.422042, -1.111209 )     2.92123371
  Sum of centres and spreads (  4.105302, -4.105906, -4.107358 )     8.74090769
 
     52    -0.262E-04     0.0027468994        8.7409090591       0.19  <-- CONV
        O_D=      0.0086609 O_OD=      0.2609128 O_TOT=      8.7409091 <-- SPRD
 Delta: O_D= -0.3980037E-05 O_OD= -0.2219407E-04 O_TOT= -0.2617411E-04 <-- DLTA
 ------------------------------------------------------------------------------
 Cycle:     53
  WF centre and spread    1  (  1.163125, -1.529334, -1.517410 )     2.90533347
  WF centre and spread    2  (  1.519577, -1.154491, -1.478729 )     2.91433553
  WF centre and spread    3  (  1.422602, -1.422080, -1.111219 )     2.92122000
  Sum of centres and spreads (  4.105305, -4.105905, -4.107358 )     8.74088901
 
     53    -0.187E-04     0.0023073563        8.7408903766       0.19  <-- CONV
        O_D=      0.0086597 O_OD=      0.2608953 O_TOT=      8.7408904 <-- SPRD
 Delta: O_D= -0.1146034E-05 O_OD= -0.1753646E-04 O_TOT= -0.1868250E-04 <-- DLTA
 ------------------------------------------------------------------------------
 Cycle:     54
  WF centre and spread    1  (  1.163070, -1.529323, -1.517286 )     2.90535487
  WF centre and spread    2  (  1.519574, -1.154450, -1.478842 )     2.91429919
  WF centre and spread    3  (  1.422664, -1.422132, -1.111230 )     2.92121688
  Sum of centres and spreads (  4.105308, -4.105905, -4.107359 )     8.74087094
 
     54    -0.181E-04     0.0021240336        8.7408723081       0.20  <-- CONV
        O_D=      0.0086635 O_OD=      0.2608734 O_TOT=      8.7408723 <-- SPRD
 Delta: O_D=  0.3818634E-05 O_OD= -0.2188722E-04 O_TOT= -0.1806859E-04 <-- DLTA
 ------------------------------------------------------------------------------
 Cycle:     55
  WF centre and spread    1  (  1.163062, -1.529322, -1.517269 )     2.90535016
  WF centre and spread    2  (  1.519574, -1.154443, -1.478859 )     2.91428706
  WF centre and spread    3  (  1.422673, -1.422140, -1.111231 )     2.92121642
  Sum of centres and spreads (  4.105308, -4.105905, -4.107359 )     8.74085363
 
     55    -0.173E-04     0.0029255699        8.7408550009       0.20  <-- CONV
        O_D=      0.0086584 O_OD=      0.2608613 O_TOT=      8.7408550 <-- SPRD
 Delta: O_D= -0.5196831E-05 O_OD= -0.1211027E-04 O_TOT= -0.1730710E-04 <-- DLTA
 ------------------------------------------------------------------------------
 Cycle:     56
  WF centre and spread    1  (  1.163035, -1.529319, -1.517215 )     2.90534802
  WF centre and spread    2  (  1.519573, -1.154422, -1.478910 )     2.91426230
  WF centre and spread    3  (  1.422702, -1.422164, -1.111234 )     2.92122552
  Sum of centres and spreads (  4.105309, -4.105905, -4.107360 )     8.74083584
 
     56    -0.178E-04     0.0020772489        8.7408372093       0.20  <-- CONV
        O_D=      0.0086579 O_OD=      0.2608440 O_TOT=      8.7408372 <-- SPRD
 Delta: O_D= -0.4692640E-06 O_OD= -0.1732234E-04 O_TOT= -0.1779160E-04 <-- DLTA
 ------------------------------------------------------------------------------
 Cycle:     57
  WF centre and spread    1  (  1.162978, -1.529311, -1.517098 )     2.90535269
  WF centre and spread    2  (  1.519571, -1.154378, -1.479021 )     2.91421584
  WF centre and spread    3  (  1.422764, -1.422215, -1.111241 )     2.92124248
  Sum of centres and spreads (  4.105312, -4.105905, -4.107361 )     8.74081102
 
     57    -0.248E-04     0.0022484786        8.7408123846       0.20  <-- CONV
        O_D=      0.0086598 O_OD=      0.2608173 O_TOT=      8.7408124 <-- SPRD
 Delta: O_D=  0.1871425E-05 O_OD= -0.2669613E-04 O_TOT= -0.2482471E-04 <-- DLTA
 ------------------------------------------------------------------------------
 Cycle:     58
  WF centre and spread    1  (  1.162889, -1.529297, -1.516910 )     2.90537108
  WF centre and spread    2  (  1.519566, -1.154311, -1.479197 )     2.91414935
  WF centre and spread    3  (  1.422862, -1.422298, -1.111255 )     2.92125908
  Sum of centres and spreads (  4.105317, -4.105905, -4.107362 )     8.74077951
 
     58    -0.315E-04     0.0026601533        8.7407808782       0.21  <-- CONV
        O_D=      0.0086616 O_OD=      0.2607840 O_TOT=      8.7407809 <-- SPRD
 Delta: O_D=  0.1805354E-05 O_OD= -0.3331176E-04 O_TOT= -0.3150641E-04 <-- DLTA
 ------------------------------------------------------------------------------
 Cycle:     59
  WF centre and spread    1  (  1.162766, -1.529271, -1.516638 )     2.90540995
  WF centre and spread    2  (  1.519557, -1.154219, -1.479446 )     2.91406324
  WF centre and spread    3  (  1.423001, -1.422414, -1.111280 )     2.92126763
  Sum of centres and spreads (  4.105325, -4.105904, -4.107364 )     8.74074082
 
     59    -0.387E-04     0.0029322412        8.7407421858       0.21  <-- CONV
        O_D=      0.0086658 O_OD=      0.2607411 O_TOT=      8.7407422 <-- SPRD
 Delta: O_D=  0.4224810E-05 O_OD= -0.4291726E-04 O_TOT= -0.3869245E-04 <-- DLTA
 ------------------------------------------------------------------------------
 Cycle:     60
  WF centre and spread    1  (  1.162612, -1.529233, -1.516284 )     2.90547081
  WF centre and spread    2  (  1.519543, -1.154105, -1.479766 )     2.91395988
  WF centre and spread    3  (  1.423178, -1.422564, -1.111315 )     2.92126495
  Sum of centres and spreads (  4.105333, -4.105903, -4.107365 )     8.74069564
 
     60    -0.452E-04     0.0033606940        8.7406970054       0.21  <-- CONV
        O_D=      0.0086777 O_OD=      0.2606840 O_TOT=      8.7406970 <-- SPRD
 Delta: O_D=  0.1190576E-04 O_OD= -0.5708616E-04 O_TOT= -0.4518040E-04 <-- DLTA
 ------------------------------------------------------------------------------
 Cycle:     61
  WF centre and spread    1  (  1.162606, -1.529230, -1.516266 )     2.90546399
  WF centre and spread    2  (  1.519541, -1.154102, -1.479780 )     2.91394417
  WF centre and spread    3  (  1.423185, -1.422570, -1.111318 )     2.92124438
  Sum of centres and spreads (  4.105332, -4.105902, -4.107364 )     8.74065254
 
     61    -0.431E-04     0.0047232341        8.7406539072       0.21  <-- CONV
        O_D=      0.0086625 O_OD=      0.2606561 O_TOT=      8.7406539 <-- SPRD
 Delta: O_D= -0.1521926E-04 O_OD= -0.2787893E-04 O_TOT= -0.4309819E-04 <-- DLTA
 ------------------------------------------------------------------------------
 Cycle:     62
  WF centre and spread    1  (  1.162590, -1.529221, -1.516221 )     2.90546983
  WF centre and spread    2  (  1.519537, -1.154092, -1.479815 )     2.91392777
  WF centre and spread    3  (  1.423204, -1.422587, -1.111326 )     2.92121874
  Sum of centres and spreads (  4.105332, -4.105900, -4.107363 )     8.74061634
 
     62    -0.362E-04     0.0032665647        8.7406177094       0.21  <-- CONV
        O_D=      0.0086553 O_OD=      0.2606271 O_TOT=      8.7406177 <-- SPRD
 Delta: O_D= -0.7181666E-05 O_OD= -0.2901611E-04 O_TOT= -0.3619778E-04 <-- DLTA
 ------------------------------------------------------------------------------
 Cycle:     63
  WF centre and spread    1  (  1.162566, -1.529209, -1.516154 )     2.90548562
  WF centre and spread    2  (  1.519531, -1.154075, -1.479870 )     2.91391000
  WF centre and spread    3  (  1.423235, -1.422614, -1.111338 )     2.92119162
  Sum of centres and spreads (  4.105332, -4.105898, -4.107361 )     8.74058723
 
     63    -0.291E-04     0.0028251916        8.7405886014       0.22  <-- CONV
        O_D=      0.0086511 O_OD=      0.2606021 O_TOT=      8.7405886 <-- SPRD
 Delta: O_D= -0.4177178E-05 O_OD= -0.2493081E-04 O_TOT= -0.2910799E-04 <-- DLTA
 ------------------------------------------------------------------------------
 Cycle:     64
  WF centre and spread    1  (  1.162534, -1.529195, -1.516073 )     2.90550572
  WF centre and spread    2  (  1.519526, -1.154053, -1.479939 )     2.91388999
  WF centre and spread    3  (  1.423274, -1.422649, -1.111349 )     2.92116903
  Sum of centres and spreads (  4.105333, -4.105897, -4.107361 )     8.74056474
 
     64    -0.225E-04     0.0025419547        8.7405661111       0.22  <-- CONV
        O_D=      0.0086475 O_OD=      0.2605833 O_TOT=      8.7405661 <-- SPRD
 Delta: O_D= -0.3598857E-05 O_OD= -0.1889146E-04 O_TOT= -0.2249032E-04 <-- DLTA
 ------------------------------------------------------------------------------
 Cycle:     65
  WF centre and spread    1  (  1.162497, -1.529183, -1.515986 )     2.90552435
  WF centre and spread    2  (  1.519521, -1.154028, -1.480015 )     2.91386745
  WF centre and spread    3  (  1.423318, -1.422687, -1.111359 )     2.92115686
  Sum of centres and spreads (  4.105336, -4.105897, -4.107361 )     8.74054866
 
     65    -0.161E-04     0.0021446200        8.7405500288       0.22  <-- CONV
        O_D=      0.0086465 O_OD=      0.2605682 O_TOT=      8.7405500 <-- SPRD
 Delta: O_D= -0.1012986E-05 O_OD= -0.1506934E-04 O_TOT= -0.1608233E-04 <-- DLTA
 ------------------------------------------------------------------------------
 Cycle:     66
  WF centre and spread    1  (  1.162446, -1.529167, -1.515873 )     2.90554407
  WF centre and spread    2  (  1.519515, -1.153991, -1.480118 )     2.91383507
  WF centre and spread    3  (  1.423377, -1.422738, -1.111371 )     2.92115427
  Sum of centres and spreads (  4.105339, -4.105897, -4.107361 )     8.74053341
 
     66    -0.153E-04     0.0019599996        8.7405347780       0.22  <-- CONV
        O_D=      0.0086498 O_OD=      0.2605496 O_TOT=      8.7405348 <-- SPRD
 Delta: O_D=  0.3331626E-05 O_OD= -0.1858235E-04 O_TOT= -0.1525073E-04 <-- DLTA
 ------------------------------------------------------------------------------
 Cycle:     67
  WF centre and spread    1  (  1.162438, -1.529166, -1.515857 )     2.90554024
  WF centre and spread    2  (  1.519515, -1.153985, -1.480133 )     2.91382442
  WF centre and spread    3  (  1.423386, -1.422746, -1.111372 )     2.92115405
  Sum of centres and spreads (  4.105339, -4.105897, -4.107362 )     8.74051871
 
     67    -0.147E-04     0.0026946712        8.7405200796       0.23  <-- CONV
        O_D=      0.0086453 O_OD=      0.2605394 O_TOT=      8.7405201 <-- SPRD
 Delta: O_D= -0.4487830E-05 O_OD= -0.1021060E-04 O_TOT= -0.1469843E-04 <-- DLTA
 ------------------------------------------------------------------------------
 Cycle:     68
  WF centre and spread    1  (  1.162412, -1.529160, -1.515806 )     2.90553908
  WF centre and spread    2  (  1.519513, -1.153967, -1.480181 )     2.91380207
  WF centre and spread    3  (  1.423415, -1.422770, -1.111375 )     2.92116216
  Sum of centres and spreads (  4.105340, -4.105897, -4.107362 )     8.74050332
 
     68    -0.154E-04     0.0019211223        8.7405046851       0.23  <-- CONV
        O_D=      0.0086450 O_OD=      0.2605244 O_TOT=      8.7405047 <-- SPRD
 Delta: O_D= -0.3868464E-06 O_OD= -0.1500770E-04 O_TOT= -0.1539454E-04 <-- DLTA
 ------------------------------------------------------------------------------
 Cycle:     69
  WF centre and spread    1  (  1.162359, -1.529147, -1.515697 )     2.90554493
  WF centre and spread    2  (  1.519508, -1.153928, -1.480283 )     2.91376045
  WF centre and spread    3  (  1.423475, -1.422821, -1.111383 )     2.92117655
  Sum of centres and spreads (  4.105342, -4.105896, -4.107363 )     8.74048193
 
     69    -0.214E-04     0.0020950046        8.7404832949       0.23  <-- CONV
        O_D=      0.0086468 O_OD=      0.2605012 O_TOT=      8.7404833 <-- SPRD
 Delta: O_D=  0.1811952E-05 O_OD= -0.2320209E-04 O_TOT= -0.2139014E-04 <-- DLTA
 ------------------------------------------------------------------------------
 Cycle:     70
  WF centre and spread    1  (  1.162275, -1.529124, -1.515521 )     2.90556417
  WF centre and spread    2  (  1.519500, -1.153869, -1.480445 )     2.91370095
  WF centre and spread    3  (  1.423571, -1.422904, -1.111398 )     2.92118967
  Sum of centres and spreads (  4.105347, -4.105896, -4.107364 )     8.74045479
 
     70    -0.271E-04     0.0024634291        8.7404561590       0.23  <-- CONV
        O_D=      0.0086486 O_OD=      0.2604722 O_TOT=      8.7404562 <-- SPRD
 Delta: O_D=  0.1879898E-05 O_OD= -0.2901584E-04 O_TOT= -0.2713594E-04 <-- DLTA
 ------------------------------------------------------------------------------
 Cycle:     71
  WF centre and spread    1  (  1.162159, -1.529087, -1.515268 )     2.90560287
  WF centre and spread    2  (  1.519487, -1.153788, -1.480674 )     2.91362385
  WF centre and spread    3  (  1.423708, -1.423021, -1.111423 )     2.92119476
  Sum of centres and spreads (  4.105354, -4.105896, -4.107365 )     8.74042148
 
     71    -0.333E-04     0.0027266104        8.7404228509       0.24  <-- CONV
        O_D=      0.0086526 O_OD=      0.2604349 O_TOT=      8.7404229 <-- SPRD
 Delta: O_D=  0.3999241E-05 O_OD= -0.3730730E-04 O_TOT= -0.3330805E-04 <-- DLTA
 ------------------------------------------------------------------------------
 Cycle:     72
  WF centre and spread    1  (  1.162015, -1.529037, -1.514943 )     2.90566125
  WF centre and spread    2  (  1.519468, -1.153689, -1.480965 )     2.91353263
  WF centre and spread    3  (  1.423879, -1.423169, -1.111458 )     2.92118933
  Sum of centres and spreads (  4.105362, -4.105895, -4.107366 )     8.74038322
 
     72    -0.383E-04     0.0031029294        8.7403845834       0.24  <-- CONV
        O_D=      0.0086632 O_OD=      0.2603861 O_TOT=      8.7403846 <-- SPRD
 Delta: O_D=  0.1051405E-04 O_OD= -0.4878154E-04 O_TOT= -0.3826750E-04 <-- DLTA
 ------------------------------------------------------------------------------
 Cycle:     73
  WF centre and spread    1  (  1.162009, -1.529033, -1.514927 )     2.90565569
  WF centre and spread    2  (  1.519466, -1.153685, -1.480977 )     2.91351905
  WF centre and spread    3  (  1.423887, -1.423176, -1.111461 )     2.92117181
  Sum of centres and spreads (  4.105361, -4.105894, -4.107365 )     8.74034655
 
     73    -0.367E-04     0.0043575028        8.7403479155       0.24  <-- CONV
        O_D=      0.0086498 O_OD=      0.2603628 O_TOT=      8.7403479 <-- SPRD
 Delta: O_D= -0.1336288E-04 O_OD= -0.2330507E-04 O_TOT= -0.3666795E-04 <-- DLTA
 ------------------------------------------------------------------------------
 Cycle:     74
  WF centre and spread    1  (  1.161993, -1.529023, -1.514885 )     2.90566145
  WF centre and spread    2  (  1.519461, -1.153676, -1.481010 )     2.91350438
  WF centre and spread    3  (  1.423906, -1.423193, -1.111469 )     2.92114947
  Sum of centres and spreads (  4.105361, -4.105892, -4.107364 )     8.74031530
 
     74    -0.312E-04     0.0030210648        8.7403166661       0.24  <-- CONV
        O_D=      0.0086432 O_OD=      0.2603381 O_TOT=      8.7403167 <-- SPRD
 Delta: O_D= -0.6593768E-05 O_OD= -0.2465560E-04 O_TOT= -0.3124937E-04 <-- DLTA
 ------------------------------------------------------------------------------
 Cycle:     75
  WF centre and spread    1  (  1.161969, -1.529009, -1.514822 )     2.90567613
  WF centre and spread    2  (  1.519455, -1.153661, -1.481061 )     2.91348836
  WF centre and spread    3  (  1.423936, -1.423221, -1.111479 )     2.92112573
  Sum of centres and spreads (  4.105361, -4.105891, -4.107363 )     8.74029022
 
     75    -0.251E-04     0.0026293723        8.7402915860       0.24  <-- CONV
        O_D=      0.0086393 O_OD=      0.2603169 O_TOT=      8.7402916 <-- SPRD
 Delta: O_D= -0.3885636E-05 O_OD= -0.2119450E-04 O_TOT= -0.2508013E-04 <-- DLTA
 ------------------------------------------------------------------------------
 Cycle:     76
  WF centre and spread    1  (  1.161939, -1.528993, -1.514747 )     2.90569481
  WF centre and spread    2  (  1.519449, -1.153642, -1.481125 )     2.91347031
  WF centre and spread    3  (  1.423975, -1.423256, -1.111490 )     2.92110573
  Sum of centres and spreads (  4.105362, -4.105890, -4.107362 )     8.74027085
 
     76    -0.194E-04     0.0023554977        8.7402722193       0.25  <-- CONV
        O_D=      0.0086361 O_OD=      0.2603008 O_TOT=      8.7402722 <-- SPRD
 Delta: O_D= -0.3266435E-05 O_OD= -0.1610021E-04 O_TOT= -0.1936664E-04 <-- DLTA
 ------------------------------------------------------------------------------
 Cycle:     77
  WF centre and spread    1  (  1.161903, -1.528977, -1.514667 )     2.90571232
  WF centre and spread    2  (  1.519443, -1.153619, -1.481195 )     2.91344997
  WF centre and spread    3  (  1.424019, -1.423294, -1.111500 )     2.92109467
  Sum of centres and spreads (  4.105365, -4.105890, -4.107362 )     8.74025696
 
     77    -0.139E-04     0.0019944374        8.7402583310       0.25  <-- CONV
        O_D=      0.0086351 O_OD=      0.2602878 O_TOT=      8.7402583 <-- SPRD
 Delta: O_D= -0.9044861E-06 O_OD= -0.1298383E-04 O_TOT= -0.1388831E-04 <-- DLTA
 ------------------------------------------------------------------------------
 Cycle:     78
  WF centre and spread    1  (  1.161855, -1.528958, -1.514562 )     2.90573084
  WF centre and spread    2  (  1.519436, -1.153587, -1.481289 )     2.91342112
  WF centre and spread    3  (  1.424077, -1.423345, -1.111511 )     2.92109203
  Sum of centres and spreads (  4.105368, -4.105890, -4.107363 )     8.74024398
 
     78    -0.130E-04     0.0018136021        8.7402453510       0.25  <-- CONV
        O_D=      0.0086381 O_OD=      0.2602719 O_TOT=      8.7402454 <-- SPRD
 Delta: O_D=  0.2924347E-05 O_OD= -0.1590440E-04 O_TOT= -0.1298006E-04 <-- DLTA
 ------------------------------------------------------------------------------
 Cycle:     79
  WF centre and spread    1  (  1.161848, -1.528956, -1.514547 )     2.90572775
  WF centre and spread    2  (  1.519435, -1.153582, -1.481303 )     2.91341175
  WF centre and spread    3  (  1.424085, -1.423353, -1.111513 )     2.92109191
  Sum of centres and spreads (  4.105368, -4.105890, -4.107363 )     8.74023142
 
     79    -0.126E-04     0.0024902427        8.7402327868       0.25  <-- CONV
        O_D=      0.0086342 O_OD=      0.2602633 O_TOT=      8.7402328 <-- SPRD
 Delta: O_D= -0.3901996E-05 O_OD= -0.8662183E-05 O_TOT= -0.1256418E-04 <-- DLTA
 ------------------------------------------------------------------------------
 Cycle:     80
  WF centre and spread    1  (  1.161823, -1.528948, -1.514500 )     2.90572746
  WF centre and spread    2  (  1.519432, -1.153565, -1.481347 )     2.91339169
  WF centre and spread    3  (  1.424113, -1.423377, -1.111516 )     2.92109892
  Sum of centres and spreads (  4.105369, -4.105890, -4.107363 )     8.74021807
 
     80    -0.133E-04     0.0017811913        8.7402194421       0.25  <-- CONV
        O_D=      0.0086339 O_OD=      0.2602502 O_TOT=      8.7402194 <-- SPRD
 Delta: O_D= -0.3144392E-06 O_OD= -0.1303022E-04 O_TOT= -0.1334466E-04 <-- DLTA
 ------------------------------------------------------------------------------
 Cycle:     81
  WF centre and spread    1  (  1.161773, -1.528930, -1.514398 )     2.90573426
  WF centre and spread    2  (  1.519426, -1.153531, -1.481441 )     2.91335450
  WF centre and spread    3  (  1.424173, -1.423428, -1.111525 )     2.92111084
  Sum of centres and spreads (  4.105371, -4.105889, -4.107364 )     8.74019961
 
     81    -0.185E-04     0.0019507969        8.7402009779       0.26  <-- CONV
        O_D=      0.0086356 O_OD=      0.2602300 O_TOT=      8.7402010 <-- SPRD
 Delta: O_D=  0.1756700E-05 O_OD= -0.2022096E-04 O_TOT= -0.1846426E-04 <-- DLTA
 ------------------------------------------------------------------------------
 Cycle:     82
  WF centre and spread    1  (  1.161694, -1.528900, -1.514234 )     2.90575399
  WF centre and spread    2  (  1.519415, -1.153478, -1.481590 )     2.91330133
  WF centre and spread    3  (  1.424267, -1.423511, -1.111541 )     2.92112087
  Sum of centres and spreads (  4.105375, -4.105889, -4.107365 )     8.74017619
 
     82    -0.234E-04     0.0022868710        8.7401775562       0.26  <-- CONV
        O_D=      0.0086375 O_OD=      0.2602047 O_TOT=      8.7401776 <-- SPRD
 Delta: O_D=  0.1893723E-05 O_OD= -0.2531542E-04 O_TOT= -0.2342169E-04 <-- DLTA
 ------------------------------------------------------------------------------
 Cycle:     83
  WF centre and spread    1  (  1.161583, -1.528854, -1.513998 )     2.90579203
  WF centre and spread    2  (  1.519397, -1.153406, -1.481801 )     2.91323224
  WF centre and spread    3  (  1.424401, -1.423628, -1.111567 )     2.92112313
  Sum of centres and spreads (  4.105382, -4.105889, -4.107365 )     8.74014741
 
     83    -0.288E-04     0.0025367986        8.7401487738       0.26  <-- CONV
        O_D=      0.0086413 O_OD=      0.2601722 O_TOT=      8.7401488 <-- SPRD
 Delta: O_D=  0.3768090E-05 O_OD= -0.3255045E-04 O_TOT= -0.2878236E-04 <-- DLTA
 ------------------------------------------------------------------------------
 Cycle:     84
  WF centre and spread    1  (  1.161447, -1.528793, -1.513699 )     2.90584773
  WF centre and spread    2  (  1.519374, -1.153319, -1.482065 )     2.91315120
  WF centre and spread    3  (  1.424568, -1.423776, -1.111601 )     2.92111583
  Sum of centres and spreads (  4.105389, -4.105888, -4.107366 )     8.74011476
 
     84    -0.326E-04     0.0028729703        8.7401161242       0.26  <-- CONV
        O_D=      0.0086506 O_OD=      0.2601302 O_TOT=      8.7401161 <-- SPRD
 Delta: O_D=  0.9352118E-05 O_OD= -0.4200171E-04 O_TOT= -0.3264959E-04 <-- DLTA
 ------------------------------------------------------------------------------
 Cycle:     85
  WF centre and spread    1  (  1.161441, -1.528789, -1.513684 )     2.90584313
  WF centre and spread    2  (  1.519372, -1.153316, -1.482077 )     2.91313936
  WF centre and spread    3  (  1.424576, -1.423782, -1.111604 )     2.92110084
  Sum of centres and spreads (  4.105389, -4.105887, -4.107365 )     8.74008334
 
     85    -0.314E-04     0.0040349293        8.7400847059       0.26  <-- CONV
        O_D=      0.0086388 O_OD=      0.2601106 O_TOT=      8.7400847 <-- SPRD
 Delta: O_D= -0.1181278E-04 O_OD= -0.1960558E-04 O_TOT= -0.3141836E-04 <-- DLTA
 ------------------------------------------------------------------------------
 Cycle:     86
  WF centre and spread    1  (  1.161426, -1.528778, -1.513645 )     2.90584869
  WF centre and spread    2  (  1.519367, -1.153307, -1.482108 )     2.91312614
  WF centre and spread    3  (  1.424595, -1.423801, -1.111611 )     2.92108144
  Sum of centres and spreads (  4.105388, -4.105886, -4.107364 )     8.74005626
 
     86    -0.271E-04     0.0028015312        8.7400576314       0.27  <-- CONV
        O_D=      0.0086328 O_OD=      0.2600895 O_TOT=      8.7400576 <-- SPRD
 Delta: O_D= -0.6049500E-05 O_OD= -0.2102494E-04 O_TOT= -0.2707444E-04 <-- DLTA
 ------------------------------------------------------------------------------
 Cycle:     87
  WF centre and spread    1  (  1.161403, -1.528762, -1.513587 )     2.90586228
  WF centre and spread    2  (  1.519361, -1.153294, -1.482155 )     2.91311163
  WF centre and spread    3  (  1.424626, -1.423829, -1.111621 )     2.92106068
  Sum of centres and spreads (  4.105389, -4.105884, -4.107363 )     8.74003458
 
     87    -0.217E-04     0.0024496976        8.7400359505       0.27  <-- CONV
        O_D=      0.0086292 O_OD=      0.2600714 O_TOT=      8.7400360 <-- SPRD
 Delta: O_D= -0.3604404E-05 O_OD= -0.1807656E-04 O_TOT= -0.2168097E-04 <-- DLTA
 ------------------------------------------------------------------------------
 Cycle:     88
  WF centre and spread    1  (  1.161373, -1.528744, -1.513517 )     2.90587963
  WF centre and spread    2  (  1.519353, -1.153276, -1.482214 )     2.91309533
  WF centre and spread    3  (  1.424664, -1.423864, -1.111631 )     2.92104290
  Sum of centres and spreads (  4.105390, -4.105884, -4.107363 )     8.74001786
 
     88    -0.167E-04     0.0021866107        8.7400192306       0.27  <-- CONV
        O_D=      0.0086262 O_OD=      0.2600577 O_TOT=      8.7400192 <-- SPRD
 Delta: O_D= -0.2973785E-05 O_OD= -0.1374612E-04 O_TOT= -0.1671991E-04 <-- DLTA
 ------------------------------------------------------------------------------
 Cycle:     89
  WF centre and spread    1  (  1.161339, -1.528726, -1.513443 )     2.90589617
  WF centre and spread    2  (  1.519347, -1.153256, -1.482279 )     2.91307697
  WF centre and spread    3  (  1.424707, -1.423902, -1.111641 )     2.92103268
  Sum of centres and spreads (  4.105393, -4.105884, -4.107363 )     8.74000583
 
     89    -0.120E-04     0.0018575644        8.7400071947       0.27  <-- CONV
        O_D=      0.0086254 O_OD=      0.2600465 O_TOT=      8.7400072 <-- SPRD
 Delta: O_D= -0.8155392E-06 O_OD= -0.1122027E-04 O_TOT= -0.1203581E-04 <-- DLTA
 ------------------------------------------------------------------------------
 Cycle:     90
  WF centre and spread    1  (  1.161294, -1.528704, -1.513346 )     2.90591373
  WF centre and spread    2  (  1.519338, -1.153227, -1.482364 )     2.91305123
  WF centre and spread    3  (  1.424764, -1.423953, -1.111653 )     2.92102976
  Sum of centres and spreads (  4.105395, -4.105884, -4.107363 )     8.73999471
 
     90    -0.111E-04     0.0016827571        8.7399960783       0.27  <-- CONV
        O_D=      0.0086280 O_OD=      0.2600328 O_TOT=      8.7399961 <-- SPRD
 Delta: O_D=  0.2580495E-05 O_OD= -0.1369692E-04 O_TOT= -0.1111642E-04 <-- DLTA
 ------------------------------------------------------------------------------
 Cycle:     91
  WF centre and spread    1  (  1.161286, -1.528701, -1.513332 )     2.90591127
  WF centre and spread    2  (  1.519337, -1.153223, -1.482377 )     2.91304297
  WF centre and spread    3  (  1.424772, -1.423961, -1.111654 )     2.92102966
  Sum of centres and spreads (  4.105395, -4.105884, -4.107363 )     8.73998390
 
     91    -0.108E-04     0.0023088043        8.7399852726       0.28  <-- CONV
        O_D=      0.0086245 O_OD=      0.2600254 O_TOT=      8.7399853 <-- SPRD
 Delta: O_D= -0.3412203E-05 O_OD= -0.7393474E-05 O_TOT= -0.1080568E-04 <-- DLTA
 ------------------------------------------------------------------------------
 Cycle:     92
  WF centre and spread    1  (  1.161263, -1.528691, -1.513287 )     2.90591172
  WF centre and spread    2  (  1.519333, -1.153208, -1.482417 )     2.91302498
  WF centre and spread    3  (  1.424800, -1.423985, -1.111658 )     2.92103560
  Sum of centres and spreads (  4.105396, -4.105884, -4.107363 )     8.73997230
 
     92    -0.116E-04     0.0016555270        8.7399736657       0.28  <-- CONV
        O_D=      0.0086243 O_OD=      0.2600140 O_TOT=      8.7399737 <-- SPRD
 Delta: O_D= -0.2447540E-06 O_OD= -0.1136217E-04 O_TOT= -0.1160692E-04 <-- DLTA
 ------------------------------------------------------------------------------
 Cycle:     93
  WF centre and spread    1  (  1.161215, -1.528669, -1.513192 )     2.90591924
  WF centre and spread    2  (  1.519325, -1.153177, -1.482504 )     2.91299182
  WF centre and spread    3  (  1.424858, -1.424037, -1.111668 )     2.92104526
  Sum of centres and spreads (  4.105398, -4.105883, -4.107364 )     8.73995632
 
     93    -0.160E-04     0.0018195351        8.7399576880       0.28  <-- CONV
        O_D=      0.0086260 O_OD=      0.2599964 O_TOT=      8.7399577 <-- SPRD
 Delta: O_D=  0.1684179E-05 O_OD= -0.1766192E-04 O_TOT= -0.1597774E-04 <-- DLTA
 ------------------------------------------------------------------------------
 Cycle:     94
  WF centre and spread    1  (  1.161140, -1.528633, -1.513040 )     2.90593915
  WF centre and spread    2  (  1.519312, -1.153131, -1.482640 )     2.91294433
  WF centre and spread    3  (  1.424951, -1.424119, -1.111684 )     2.92105257
  Sum of centres and spreads (  4.105402, -4.105883, -4.107364 )     8.73993605
 
     94    -0.203E-04     0.0021258938        8.7399374198       0.28  <-- CONV
        O_D=      0.0086278 O_OD=      0.2599742 O_TOT=      8.7399374 <-- SPRD
 Delta: O_D=  0.1868616E-05 O_OD= -0.2213677E-04 O_TOT= -0.2026815E-04 <-- DLTA
 ------------------------------------------------------------------------------
 Cycle:     95
  WF centre and spread    1  (  1.161035, -1.528580, -1.512820 )     2.90597626
  WF centre and spread    2  (  1.519291, -1.153066, -1.482835 )     2.91288239
  WF centre and spread    3  (  1.425083, -1.424237, -1.111710 )     2.92105246
  Sum of centres and spreads (  4.105408, -4.105883, -4.107365 )     8.73991111
 
     95    -0.249E-04     0.0023638639        8.7399124760       0.28  <-- CONV
        O_D=      0.0086314 O_OD=      0.2599458 O_TOT=      8.7399125 <-- SPRD
 Delta: O_D=  0.3537822E-05 O_OD= -0.2848161E-04 O_TOT= -0.2494379E-04 <-- DLTA
 ------------------------------------------------------------------------------
 Cycle:     96
  WF centre and spread    1  (  1.160905, -1.528509, -1.512544 )     2.90602916
  WF centre and spread    2  (  1.519264, -1.152988, -1.483076 )     2.91281015
  WF centre and spread    3  (  1.425246, -1.424384, -1.111745 )     2.92104376
  Sum of centres and spreads (  4.105415, -4.105882, -4.107365 )     8.73988307
 
     96    -0.280E-04     0.0026667451        8.7398844390       0.29  <-- CONV
        O_D=      0.0086397 O_OD=      0.2599094 O_TOT=      8.7398844 <-- SPRD
 Delta: O_D=  0.8341613E-05 O_OD= -0.3637869E-04 O_TOT= -0.2803707E-04 <-- DLTA
 ------------------------------------------------------------------------------
 Cycle:     97
  WF centre and spread    1  (  1.160900, -1.528505, -1.512530 )     2.90602534
  WF centre and spread    2  (  1.519262, -1.152986, -1.483087 )     2.91279976
  WF centre and spread    3  (  1.425254, -1.424391, -1.111747 )     2.92103091
  Sum of centres and spreads (  4.105415, -4.105881, -4.107364 )     8.73985601
 
[...]
  Sum of centres and spreads (  4.105907, -4.105984, -4.107180 )     8.73770264
 
    473    -0.186E-05     0.0007253247        8.7377040087       1.40  <-- CONV
        O_D=      0.0085367 O_OD=      0.2578319 O_TOT=      8.7377040 <-- SPRD
 Delta: O_D= -0.3499458E-06 O_OD= -0.1511451E-05 O_TOT= -0.1861396E-05 <-- DLTA
 ------------------------------------------------------------------------------
 Cycle:    474
  WF centre and spread    1  (  1.149286, -1.514866, -1.497371 )     2.90903673
  WF centre and spread    2  (  1.511947, -1.147118, -1.493028 )     2.90994638
  WF centre and spread    3  (  1.444675, -1.444001, -1.116780 )     2.91871790
  Sum of centres and spreads (  4.105908, -4.105985, -4.107180 )     8.73770101
 
    474    -0.163E-05     0.0006506494        8.7377023752       1.40  <-- CONV
        O_D=      0.0085372 O_OD=      0.2578298 O_TOT=      8.7377024 <-- SPRD
 Delta: O_D=  0.4804156E-06 O_OD= -0.2113905E-05 O_TOT= -0.1633489E-05 <-- DLTA
 ------------------------------------------------------------------------------
 Cycle:    475
  WF centre and spread    1  (  1.149283, -1.514861, -1.497369 )     2.90903677
  WF centre and spread    2  (  1.511943, -1.147116, -1.493028 )     2.90994577
  WF centre and spread    3  (  1.444683, -1.444008, -1.116782 )     2.91871685
  Sum of centres and spreads (  4.105908, -4.105985, -4.107179 )     8.73769938
 
    475    -0.163E-05     0.0008924879        8.7377007485       1.41  <-- CONV
        O_D=      0.0085366 O_OD=      0.2578288 O_TOT=      8.7377007 <-- SPRD
 Delta: O_D= -0.6050547E-06 O_OD= -0.1021664E-05 O_TOT= -0.1626719E-05 <-- DLTA
 ------------------------------------------------------------------------------
 Cycle:    476
  WF centre and spread    1  (  1.149271, -1.514843, -1.497360 )     2.90903815
  WF centre and spread    2  (  1.511931, -1.147108, -1.493029 )     2.90994503
  WF centre and spread    3  (  1.444707, -1.444033, -1.116790 )     2.91871435
  Sum of centres and spreads (  4.105909, -4.105985, -4.107179 )     8.73769753
 
    476    -0.185E-05     0.0006492701        8.7376988964       1.41  <-- CONV
        O_D=      0.0085368 O_OD=      0.2578268 O_TOT=      8.7376989 <-- SPRD
 Delta: O_D=  0.1778507E-06 O_OD= -0.2029931E-05 O_TOT= -0.1852081E-05 <-- DLTA
 ------------------------------------------------------------------------------
 Cycle:    477
  WF centre and spread    1  (  1.149249, -1.514809, -1.497344 )     2.90904159
  WF centre and spread    2  (  1.511907, -1.147094, -1.493030 )     2.90994442
  WF centre and spread    3  (  1.444754, -1.444082, -1.116804 )     2.91870915
  Sum of centres and spreads (  4.105909, -4.105986, -4.107178 )     8.73769516
 
    477    -0.237E-05     0.0007235153        8.7376965240       1.41  <-- CONV
        O_D=      0.0085375 O_OD=      0.2578237 O_TOT=      8.7376965 <-- SPRD
 Delta: O_D=  0.6720888E-06 O_OD= -0.3044547E-05 O_TOT= -0.2372458E-05 <-- DLTA
 ------------------------------------------------------------------------------
 Cycle:    478
  WF centre and spread    1  (  1.149213, -1.514755, -1.497318 )     2.90904782
  WF centre and spread    2  (  1.511868, -1.147071, -1.493032 )     2.90994428
  WF centre and spread    3  (  1.444830, -1.444161, -1.116828 )     2.91870008
  Sum of centres and spreads (  4.105911, -4.105987, -4.107177 )     8.73769217
 
    478    -0.298E-05     0.0008164874        8.7376935408       1.41  <-- CONV
        O_D=      0.0085383 O_OD=      0.2578199 O_TOT=      8.7376935 <-- SPRD
 Delta: O_D=  0.8253587E-06 O_OD= -0.3808536E-05 O_TOT= -0.2983178E-05 <-- DLTA
 ------------------------------------------------------------------------------
 Cycle:    479
  WF centre and spread    1  (  1.149159, -1.514673, -1.497278 )     2.90905781
  WF centre and spread    2  (  1.511810, -1.147036, -1.493035 )     2.90994474
  WF centre and spread    3  (  1.444944, -1.444279, -1.116863 )     2.91868575
  Sum of centres and spreads (  4.105913, -4.105988, -4.107176 )     8.73768831
 
    479    -0.386E-05     0.0009179589        8.7376896780       1.41  <-- CONV
        O_D=      0.0085395 O_OD=      0.2578148 O_TOT=      8.7376897 <-- SPRD
 Delta: O_D=  0.1236189E-05 O_OD= -0.5099003E-05 O_TOT= -0.3862814E-05 <-- DLTA
 ------------------------------------------------------------------------------
 Cycle:    480
  WF centre and spread    1  (  1.149092, -1.514571, -1.497229 )     2.90907057
  WF centre and spread    2  (  1.511737, -1.146992, -1.493039 )     2.90994565
  WF centre and spread    3  (  1.445086, -1.444427, -1.116907 )     2.91866774
  Sum of centres and spreads (  4.105916, -4.105990, -4.107174 )     8.73768397
 
    480    -0.434E-05     0.0010381871        8.7376853385       1.42  <-- CONV
        O_D=      0.0085417 O_OD=      0.2578083 O_TOT=      8.7376853 <-- SPRD
 Delta: O_D=  0.2164070E-05 O_OD= -0.6503581E-05 O_TOT= -0.4339512E-05 <-- DLTA
 ------------------------------------------------------------------------------
 Cycle:    481
  WF centre and spread    1  (  1.149089, -1.514566, -1.497227 )     2.90906979
  WF centre and spread    2  (  1.511734, -1.146990, -1.493039 )     2.90994436
  WF centre and spread    3  (  1.445093, -1.444434, -1.116909 )     2.91866550
  Sum of centres and spreads (  4.105916, -4.105990, -4.107174 )     8.73767966
 
    481    -0.431E-05     0.0015147416        8.7376810259       1.42  <-- CONV
        O_D=      0.0085393 O_OD=      0.2578064 O_TOT=      8.7376810 <-- SPRD
 Delta: O_D= -0.2400611E-05 O_OD= -0.1911964E-05 O_TOT= -0.4312575E-05 <-- DLTA
 ------------------------------------------------------------------------------
 Cycle:    482
  WF centre and spread    1  (  1.149080, -1.514552, -1.497220 )     2.90907036
  WF centre and spread    2  (  1.511724, -1.146985, -1.493039 )     2.90994354
  WF centre and spread    3  (  1.445111, -1.444453, -1.116915 )     2.91866194
  Sum of centres and spreads (  4.105916, -4.105990, -4.107174 )     8.73767583
 
    482    -0.383E-05     0.0010351747        8.7376772002       1.42  <-- CONV
        O_D=      0.0085378 O_OD=      0.2578041 O_TOT=      8.7376772 <-- SPRD
 Delta: O_D= -0.1524849E-05 O_OD= -0.2300822E-05 O_TOT= -0.3825671E-05 <-- DLTA
 ------------------------------------------------------------------------------
 Cycle:    483
  WF centre and spread    1  (  1.149068, -1.514533, -1.497211 )     2.90907220
  WF centre and spread    2  (  1.511710, -1.146976, -1.493040 )     2.90994338
  WF centre and spread    3  (  1.445138, -1.444481, -1.116923 )     2.91865729
  Sum of centres and spreads (  4.105916, -4.105990, -4.107173 )     8.73767287
 
    483    -0.296E-05     0.0009143884        8.7376742423       1.42  <-- CONV
        O_D=      0.0085367 O_OD=      0.2578022 O_TOT=      8.7376742 <-- SPRD
 Delta: O_D= -0.1080821E-05 O_OD= -0.1877157E-05 O_TOT= -0.2957978E-05 <-- DLTA
 ------------------------------------------------------------------------------
 Cycle:    484
  WF centre and spread    1  (  1.149052, -1.514508, -1.497199 )     2.90907513
  WF centre and spread    2  (  1.511692, -1.146966, -1.493040 )     2.90994376
  WF centre and spread    3  (  1.445173, -1.444517, -1.116934 )     2.91865163
  Sum of centres and spreads (  4.105917, -4.105991, -4.107173 )     8.73767052
 
    484    -0.236E-05     0.0008103233        8.7376718869       1.42  <-- CONV
        O_D=      0.0085358 O_OD=      0.2578007 O_TOT=      8.7376719 <-- SPRD
 Delta: O_D= -0.8791083E-06 O_OD= -0.1476242E-05 O_TOT= -0.2355350E-05 <-- DLTA
 ------------------------------------------------------------------------------
 Cycle:    485
  WF centre and spread    1  (  1.149033, -1.514479, -1.497185 )     2.90907873
  WF centre and spread    2  (  1.511672, -1.146954, -1.493041 )     2.90994435
  WF centre and spread    3  (  1.445213, -1.444558, -1.116946 )     2.91864559
  Sum of centres and spreads (  4.105918, -4.105991, -4.107172 )     8.73766867
 
    485    -0.184E-05     0.0007214520        8.7376700423       1.43  <-- CONV
        O_D=      0.0085355 O_OD=      0.2577992 O_TOT=      8.7376700 <-- SPRD
 Delta: O_D= -0.3472512E-06 O_OD= -0.1497387E-05 O_TOT= -0.1844638E-05 <-- DLTA
 ------------------------------------------------------------------------------
 Cycle:    486
  WF centre and spread    1  (  1.149011, -1.514445, -1.497169 )     2.90908306
  WF centre and spread    2  (  1.511647, -1.146939, -1.493042 )     2.90994490
  WF centre and spread    3  (  1.445261, -1.444608, -1.116961 )     2.91863910
  Sum of centres and spreads (  4.105919, -4.105992, -4.107172 )     8.73766706
 
    486    -0.162E-05     0.0006490098        8.7376684255       1.43  <-- CONV
        O_D=      0.0085359 O_OD=      0.2577972 O_TOT=      8.7376684 <-- SPRD
 Delta: O_D=  0.4731840E-06 O_OD= -0.2089967E-05 O_TOT= -0.1616783E-05 <-- DLTA
 ------------------------------------------------------------------------------
 Cycle:    487
  WF centre and spread    1  (  1.149007, -1.514439, -1.497166 )     2.90908310
  WF centre and spread    2  (  1.511643, -1.146937, -1.493042 )     2.90994431
  WF centre and spread    3  (  1.445269, -1.444616, -1.116964 )     2.91863804
  Sum of centres and spreads (  4.105919, -4.105992, -4.107172 )     8.73766545
 
    487    -0.161E-05     0.0008858128        8.7376668150       1.43  <-- CONV
        O_D=      0.0085353 O_OD=      0.2577961 O_TOT=      8.7376668 <-- SPRD
 Delta: O_D= -0.5977622E-06 O_OD= -0.1012716E-05 O_TOT= -0.1610478E-05 <-- DLTA
 ------------------------------------------------------------------------------
 Cycle:    488
  WF centre and spread    1  (  1.148996, -1.514422, -1.497158 )     2.90908445
  WF centre and spread    2  (  1.511631, -1.146929, -1.493042 )     2.90994366
  WF centre and spread    3  (  1.445293, -1.444641, -1.116971 )     2.91863550
  Sum of centres and spreads (  4.105919, -4.105992, -4.107171 )     8.73766361
 
    488    -0.184E-05     0.0006472501        8.7376649778       1.43  <-- CONV
        O_D=      0.0085355 O_OD=      0.2577941 O_TOT=      8.7376650 <-- SPRD
 Delta: O_D=  0.1801430E-06 O_OD= -0.2017311E-05 O_TOT= -0.1837168E-05 <-- DLTA
 ------------------------------------------------------------------------------
 Cycle:    489
  WF centre and spread    1  (  1.148974, -1.514389, -1.497142 )     2.90908779
  WF centre and spread    2  (  1.511606, -1.146915, -1.493043 )     2.90994320
  WF centre and spread    3  (  1.445340, -1.444689, -1.116986 )     2.91863028
  Sum of centres and spreads (  4.105920, -4.105992, -4.107171 )     8.73766127
 
    489    -0.234E-05     0.0007209295        8.7376626360       1.43  <-- CONV
        O_D=      0.0085362 O_OD=      0.2577911 O_TOT=      8.7376626 <-- SPRD
 Delta: O_D=  0.6583203E-06 O_OD= -0.3000145E-05 O_TOT= -0.2341825E-05 <-- DLTA
 ------------------------------------------------------------------------------
 Cycle:    490
  WF centre and spread    1  (  1.148939, -1.514335, -1.497117 )     2.90909382
  WF centre and spread    2  (  1.511568, -1.146892, -1.493044 )     2.90994328
  WF centre and spread    3  (  1.445414, -1.444767, -1.117009 )     2.91862122
  Sum of centres and spreads (  4.105921, -4.105993, -4.107170 )     8.73765833
 
    490    -0.294E-05     0.0008082758        8.7376596937       1.44  <-- CONV
        O_D=      0.0085370 O_OD=      0.2577874 O_TOT=      8.7376597 <-- SPRD
 Delta: O_D=  0.8101594E-06 O_OD= -0.3752503E-05 O_TOT= -0.2942343E-05 <-- DLTA
 ------------------------------------------------------------------------------
 Cycle:    491
  WF centre and spread    1  (  1.148887, -1.514254, -1.497079 )     2.90910350
  WF centre and spread    2  (  1.511510, -1.146857, -1.493046 )     2.90994407
  WF centre and spread    3  (  1.445527, -1.444884, -1.117044 )     2.91860696
  Sum of centres and spreads (  4.105924, -4.105995, -4.107168 )     8.73765453
 
    491    -0.380E-05     0.0009105890        8.7376558968       1.44  <-- CONV
        O_D=      0.0085382 O_OD=      0.2577824 O_TOT=      8.7376559 <-- SPRD
 Delta: O_D=  0.1222034E-05 O_OD= -0.5018884E-05 O_TOT= -0.3796851E-05 <-- DLTA
 ------------------------------------------------------------------------------
 Cycle:    492
  WF centre and spread    1  (  1.148821, -1.514153, -1.497031 )     2.90911591
  WF centre and spread    2  (  1.511437, -1.146813, -1.493048 )     2.90994538
  WF centre and spread    3  (  1.445669, -1.445030, -1.117088 )     2.91858896
  Sum of centres and spreads (  4.105926, -4.105997, -4.107167 )     8.73765025
 
    492    -0.428E-05     0.0010284031        8.7376516164       1.44  <-- CONV
        O_D=      0.0085403 O_OD=      0.2577759 O_TOT=      8.7376516 <-- SPRD
 Delta: O_D=  0.2144143E-05 O_OD= -0.6424557E-05 O_TOT= -0.4280414E-05 <-- DLTA
 ------------------------------------------------------------------------------
 Cycle:    493
  WF centre and spread    1  (  1.148818, -1.514148, -1.497029 )     2.90911513
  WF centre and spread    2  (  1.511433, -1.146811, -1.493048 )     2.90994413
  WF centre and spread    3  (  1.445675, -1.445037, -1.117090 )     2.91858673
  Sum of centres and spreads (  4.105926, -4.105997, -4.107167 )     8.73764600
 
    493    -0.425E-05     0.0015055812        8.7376473677       1.44  <-- CONV
        O_D=      0.0085380 O_OD=      0.2577741 O_TOT=      8.7376474 <-- SPRD
 Delta: O_D= -0.2377855E-05 O_OD= -0.1870828E-05 O_TOT= -0.4248683E-05 <-- DLTA
 ------------------------------------------------------------------------------
 Cycle:    494
  WF centre and spread    1  (  1.148809, -1.514135, -1.497023 )     2.90911568
  WF centre and spread    2  (  1.511423, -1.146806, -1.493048 )     2.90994338
  WF centre and spread    3  (  1.445694, -1.445056, -1.117096 )     2.91858319
  Sum of centres and spreads (  4.105926, -4.105997, -4.107166 )     8.73764225
 
    494    -0.375E-05     0.0010257020        8.7376436163       1.44  <-- CONV
        O_D=      0.0085365 O_OD=      0.2577718 O_TOT=      8.7376436 <-- SPRD
 Delta: O_D= -0.1501238E-05 O_OD= -0.2250147E-05 O_TOT= -0.3751386E-05 <-- DLTA
 ------------------------------------------------------------------------------
 Cycle:    495
  WF centre and spread    1  (  1.148797, -1.514115, -1.497013 )     2.90911747
  WF centre and spread    2  (  1.511409, -1.146797, -1.493048 )     2.90994331
  WF centre and spread    3  (  1.445721, -1.445084, -1.117104 )     2.91857857
  Sum of centres and spreads (  4.105927, -4.105997, -4.107166 )     8.73763935
 
    495    -0.290E-05     0.0009049207        8.7376407141       1.45  <-- CONV
        O_D=      0.0085354 O_OD=      0.2577700 O_TOT=      8.7376407 <-- SPRD
 Delta: O_D= -0.1059529E-05 O_OD= -0.1842755E-05 O_TOT= -0.2902284E-05 <-- DLTA
 ------------------------------------------------------------------------------
 Cycle:    496
  WF centre and spread    1  (  1.148781, -1.514091, -1.497002 )     2.90912034
  WF centre and spread    2  (  1.511391, -1.146787, -1.493048 )     2.90994379
  WF centre and spread    3  (  1.445755, -1.445120, -1.117115 )     2.91857289
  Sum of centres and spreads (  4.105927, -4.105997, -4.107165 )     8.73763701
 
    496    -0.233E-05     0.0008048001        8.7376383824       1.45  <-- CONV
        O_D=      0.0085345 O_OD=      0.2577685 O_TOT=      8.7376384 <-- SPRD
 Delta: O_D= -0.8686671E-06 O_OD= -0.1462945E-05 O_TOT= -0.2331613E-05 <-- DLTA
 ------------------------------------------------------------------------------
 Cycle:    497
  WF centre and spread    1  (  1.148762, -1.514062, -1.496989 )     2.90912386
  WF centre and spread    2  (  1.511371, -1.146775, -1.493048 )     2.90994448
  WF centre and spread    3  (  1.445795, -1.445161, -1.117128 )     2.91856683
  Sum of centres and spreads (  4.105928, -4.105998, -4.107165 )     8.73763518
 
    497    -0.183E-05     0.0007195743        8.7376365489       1.45  <-- CONV
        O_D=      0.0085342 O_OD=      0.2577670 O_TOT=      8.7376365 <-- SPRD
 Delta: O_D= -0.3503064E-06 O_OD= -0.1483201E-05 O_TOT= -0.1833507E-05 <-- DLTA
 ------------------------------------------------------------------------------
 Cycle:    498
  WF centre and spread    1  (  1.148740, -1.514027, -1.496973 )     2.90912810
  WF centre and spread    2  (  1.511345, -1.146760, -1.493049 )     2.90994516
  WF centre and spread    3  (  1.445844, -1.445212, -1.117143 )     2.91856032
  Sum of centres and spreads (  4.105929, -4.105999, -4.107164 )     8.73763358
 
    498    -0.160E-05     0.0006452812        8.7376349463       1.45  <-- CONV
        O_D=      0.0085347 O_OD=      0.2577649 O_TOT=      8.7376349 <-- SPRD
 Delta: O_D=  0.4728019E-06 O_OD= -0.2075413E-05 O_TOT= -0.1602611E-05 <-- DLTA
 ------------------------------------------------------------------------------
 Cycle:    499
  WF centre and spread    1  (  1.148737, -1.514022, -1.496970 )     2.90912813
  WF centre and spread    2  (  1.511342, -1.146758, -1.493049 )     2.90994461
  WF centre and spread    3  (  1.445851, -1.445219, -1.117145 )     2.91855924
  Sum of centres and spreads (  4.105929, -4.105999, -4.107164 )     8.73763198
 
    499    -0.160E-05     0.0008833102        8.7376333490       1.45  <-- CONV
        O_D=      0.0085341 O_OD=      0.2577639 O_TOT=      8.7376333 <-- SPRD
 Delta: O_D= -0.5951470E-06 O_OD= -0.1002161E-05 O_TOT= -0.1597308E-05 <-- DLTA
 ------------------------------------------------------------------------------
 Cycle:    500
  WF centre and spread    1  (  1.148726, -1.514005, -1.496962 )     2.90912945
  WF centre and spread    2  (  1.511329, -1.146750, -1.493049 )     2.90994403
  WF centre and spread    3  (  1.445875, -1.445244, -1.117153 )     2.91855667
  Sum of centres and spreads (  4.105929, -4.105999, -4.107164 )     8.73763016
 
    500    -0.182E-05     0.0006439415        8.7376315266       1.46  <-- CONV
        O_D=      0.0085342 O_OD=      0.2577619 O_TOT=      8.7376315 <-- SPRD
 Delta: O_D=  0.1768672E-06 O_OD= -0.1999292E-05 O_TOT= -0.1822424E-05 <-- DLTA
 ------------------------------------------------------------------------------

 Writing checkpoint file mp-1550.chk... done

 Final State
  WF centre and spread    1  (  1.148726, -1.514005, -1.496962 )     2.90912945
  WF centre and spread    2  (  1.511329, -1.146750, -1.493049 )     2.90994403
  WF centre and spread    3  (  1.445875, -1.445244, -1.117153 )     2.91855667
  Sum of centres and spreads (  4.105929, -4.105999, -4.107164 )     8.73763016
 
         Spreads (Ang^2)       Omega I      =     8.471335342
        ================       Omega D      =     0.008534239
                               Omega OD     =     0.257761945
    Final Spread (Ang^2)       Omega Total  =     8.737631527
 ------------------------------------------------------------------------------
 Time for wannierise            1.093 (sec)

 Writing checkpoint file mp-1550.chk... done

 Time for plotting              0.000 (sec)
 Total Execution Time           2.189 (sec)

 *===========================================================================*
 |                             TIMING INFORMATION                            |
 *===========================================================================*
 |    Tag                                                Ncalls      Time (s)|
 |---------------------------------------------------------------------------|
 |kmesh: get                                        :         1         0.724|
 |overlap: allocate                                 :         1         0.001|
 |overlap: read                                     :         1         0.165|
 |wann: main                                        :         1         1.093|
 |plot: main                                        :         1         0.000|
 *---------------------------------------------------------------------------*
 
 All done: wannier90 exiting
