 
             +---------------------------------------------------+
             |                                                   |
             |                   WANNIER90                       |
             |                                                   |
             +---------------------------------------------------+
             |                                                   |
             |        Welcome to the Maximally-Localized         |
             |        Generalized Wannier Functions code         |
             |            http://www.wannier.org                 |
             |                                                   |
             |                                                   |
             |  Wannier90 Developer Group:                       |
             |    Giovanni Pizzi    (EPFL)                       |
             |    Valerio Vitale    (Cambridge)                  |
             |    David Vanderbilt  (Rutgers University)         |
             |    Nicola Marzari    (EPFL)                       |
             |    Ivo Souza         (Universidad del Pais Vasco) |
             |    Arash A. Mostofi  (Imperial College London)    |
             |    Jonathan R. Yates (University of Oxford)       |
             |                                                   |
             |  For the full list of Wannier90 3.x authors,      |
             |  please check the code documentation and the      |
             |  README on the GitHub page of the code            |
             |                                                   |
             |                                                   |
             |  Please cite                                      |
             |                                                   |
             |  [ref] "Wannier90 as a community code:            |
             |        new features and applications",            |
             |        G. Pizzi et al., J. Phys. Cond. Matt. 32,  |
             |        165902 (2020).                             |
             |        http://doi.org/10.1088/1361-648X/ab51ff    |
             |                                                   |
             |  in any publications arising from the use of      |
             |  this code. For the method please cite            |
             |                                                   |
             |  [ref] "Maximally Localized Generalised Wannier   |
             |         Functions for Composite Energy Bands"     |
             |         N. Marzari and D. Vanderbilt              |
             |         Phys. Rev. B 56 12847 (1997)              |
             |                                                   |
             |  [ref] "Maximally Localized Wannier Functions     |
             |         for Entangled Energy Bands"               |
             |         I. Souza, N. Marzari and D. Vanderbilt    |
             |         Phys. Rev. B 65 035109 (2001)             |
             |                                                   |
             |                                                   |
             | Copyright (c) 1996-2020                           |
             |        The Wannier90 Developer Group and          |
             |        individual contributors                    |
             |                                                   |
             |      Release: 3.1.0        5th March    2020      |
             |                                                   |
             | This program is free software; you can            |
             | redistribute it and/or modify it under the terms  |
             | of the GNU General Public License as published by |
             | the Free Software Foundation; either version 2 of |
             | the License, or (at your option) any later version|
             |                                                   |
             | This program is distributed in the hope that it   |
             | will be useful, but WITHOUT ANY WARRANTY; without |
             | even the implied warranty of MERCHANTABILITY or   |
             | FITNESS FOR A PARTICULAR PURPOSE. See the GNU     |
             | General Public License for more details.          |
             |                                                   |
             | You should have received a copy of the GNU General|
             | Public License along with this program; if not,   |
             | write to the Free Software Foundation, Inc.,      |
             | 675 Mass Ave, Cambridge, MA 02139, USA.           |
             |                                                   |
             +---------------------------------------------------+
             |    Execution started on  3Jan2024 at 14:30:41     |
             +---------------------------------------------------+
 
 ******************************************************************************
 * -> Using CODATA 2006 constant values                                       *
 *    (http://physics.nist.gov/cuu/Constants/index.html)                      *
 * -> Using Bohr value from CODATA                                            *
 ******************************************************************************
 

 Running in parallel on   8 CPUs

 
                                    ------
                                    SYSTEM
                                    ------
 
                              Lattice Vectors (Ang)
                    a_1    -2.736484   0.000000   2.736484
                    a_2     0.000000   2.736484   2.736484
                    a_3    -2.736484   2.736484   0.000000
 
                   Unit Cell Volume:      40.98347  (Ang^3)
 
                        Reciprocal-Space Vectors (Ang^-1)
                    b_1    -1.148040  -1.148040   1.148040
                    b_2     1.148040   1.148040   1.148040
                    b_3    -1.148040   1.148040  -1.148040
  
 *----------------------------------------------------------------------------*
 |   Site       Fractional Coordinate          Cartesian Coordinate (Ang)     |
 +----------------------------------------------------------------------------+
 | Al   1   0.00000   0.00000   0.00000   |    0.00000   0.00000   0.00000    |
 | P    1   0.75000   0.75000   0.75000   |   -4.10473   4.10473   4.10473    |
 *----------------------------------------------------------------------------*
                                ------------
                                K-POINT GRID
                                ------------
  
             Grid size = 12 x 12 x 12      Total points = 1728
  
  
 *---------------------------------- MAIN ------------------------------------*
 |  Number of Wannier Functions               :                 3             |
 |  Number of Objective Wannier Functions     :                 3             |
 |  Number of input Bloch states              :                 3             |
 |  Output verbosity (1=low, 5=high)          :                 1             |
 |  Timing Level (1=low, 5=high)              :                 1             |
 |  Optimisation (0=memory, 3=speed)          :                 3             |
 |  Length Unit                               :               Ang             |
 |  Post-processing setup (write *.nnkp)      :                 F             |
 |  Using Gamma-only branch of algorithms     :                 F             |
 *----------------------------------------------------------------------------*
 *------------------------------- WANNIERISE ---------------------------------*
 |  Total number of iterations                :               500             |
 |  Number of CG steps before reset           :                 5             |
 |  Trial step length for line search         :             2.000             |
 |  Convergence tolerence                     :         0.100E-09             |
 |  Convergence window                        :                -1             |
 |  Iterations between writing output         :                 1             |
 |  Iterations between backing up to disk     :               100             |
 |  Write r^2_nm to file                      :                 F             |
 |  Write xyz WF centres to file              :                 F             |
 |  Write on-site energies <0n|H|0n> to file  :                 F             |
 |  Use guiding centre to control phases      :                 F             |
 |  Use phases for initial projections        :                 F             |
 *----------------------------------------------------------------------------*
 Time to read parameters        0.104 (sec)

 *---------------------------------- K-MESH ----------------------------------*
 +----------------------------------------------------------------------------+
 |                    Distance to Nearest-Neighbour Shells                    |
 |                    ------------------------------------                    |
 |          Shell             Distance (Ang^-1)          Multiplicity         |
 |          -----             -----------------          ------------         |
 |             1                   0.165705                      8            |
 |             2                   0.191340                      6            |
 |             3                   0.270596                     12            |
 |             4                   0.317301                     24            |
 |             5                   0.331411                      8            |
 |             6                   0.382680                      6            |
 |             7                   0.417016                     24            |
 |             8                   0.427849                     24            |
 |             9                   0.468685                     24            |
 |            10                   0.497116                     32            |
 |            11                   0.541191                     12            |
 |            12                   0.565991                     48            |
 |            13                   0.574020                     30            |
 |            14                   0.605070                     24            |
 |            15                   0.627350                     24            |
 |            16                   0.634603                     24            |
 |            17                   0.662821                      8            |
 |            18                   0.683220                     48            |
 |            19                   0.689886                     24            |
 |            20                   0.715929                     48            |
 |            21                   0.734855                     72            |
 |            22                   0.765360                      6            |
 |            23                   0.783093                     24            |
 |            24                   0.788915                     48            |
 |            25                   0.811787                     36            |
 |            26                   0.828526                     56            |
 |            27                   0.834032                     24            |
 |            28                   0.855698                     24            |
 |            29                   0.871595                     72            |
 |            30                   0.876830                     48            |
 |            31                   0.897464                     24            |
 |            32                   0.912634                     48            |
 |            33                   0.937371                     24            |
 |            34                   0.951904                     72            |
 |            35                   0.956700                     30            |
 |            36                   0.975646                     72            |
 +----------------------------------------------------------------------------+
 | The b-vectors are chosen automatically                                     |
 | The following shells are used:   1                                         |
 +----------------------------------------------------------------------------+
 |                        Shell   # Nearest-Neighbours                        |
 |                        -----   --------------------                        |
 |                          1               8                                 |
 +----------------------------------------------------------------------------+
 | Completeness relation is fully satisfied [Eq. (B1), PRB 56, 12847 (1997)]  |
 +----------------------------------------------------------------------------+
 |                  b_k Vectors (Ang^-1) and Weights (Ang^2)                  |
 |                  ----------------------------------------                  |
 |            No.         b_k(x)      b_k(y)      b_k(z)        w_b           |
 |            ---        --------------------------------     --------        |
 |             1        -0.095670    0.095670   -0.095670    13.657104        |
 |             2         0.095670    0.095670    0.095670    13.657104        |
 |             3        -0.095670   -0.095670    0.095670    13.657104        |
 |             4        -0.095670    0.095670    0.095670    13.657104        |
 |             5         0.095670   -0.095670    0.095670    13.657104        |
 |             6        -0.095670   -0.095670   -0.095670    13.657104        |
 |             7         0.095670    0.095670   -0.095670    13.657104        |
 |             8         0.095670   -0.095670   -0.095670    13.657104        |
 +----------------------------------------------------------------------------+
 |                           b_k Directions (Ang^-1)                          |
 |                           -----------------------                          |
 |            No.           x           y           z                         |
 |            ---        --------------------------------                     |
 |             1        -0.095670    0.095670   -0.095670                     |
 |             2         0.095670    0.095670    0.095670                     |
 |             3        -0.095670   -0.095670    0.095670                     |
 |             4        -0.095670    0.095670    0.095670                     |
 +----------------------------------------------------------------------------+
  
 Time to get kmesh              1.038 (sec)
 *============================================================================*
 |                              MEMORY ESTIMATE                               |
 |         Maximum RAM allocated during each phase of the calculation         |
 *============================================================================*
 |                            Wannierise:            7.00 Mb                  |
 |                          plot_wannier:            7.00 Mb                  |
 *----------------------------------------------------------------------------*
  
 Starting a new Wannier90 calculation ...


 Reading overlaps from mp-1550.mmn    :  Created on  3Jan2024 at 14:30:33

 Reading projections from mp-1550.amn :  Created on  3Jan2024 at 14:30:32  with SCDM

 Time to read overlaps          0.138 (sec)

 Writing checkpoint file mp-1550.chk... done

 
 *------------------------------- WANNIERISE ---------------------------------*
 +--------------------------------------------------------------------+<-- CONV
 | Iter  Delta Spread     RMS Gradient      Spread (Ang^2)      Time  |<-- CONV
 +--------------------------------------------------------------------+<-- CONV
 
 ------------------------------------------------------------------------------
 Initial State
  WF centre and spread    1  (  1.530572, -1.596962, -1.198767 )     3.68072720
  WF centre and spread    2  (  1.484113, -1.208190, -1.604355 )     3.69393075
  WF centre and spread    3  (  1.091897, -1.300056, -1.301449 )     3.76423617
  Sum of centres and spreads (  4.106582, -4.105208, -4.104572 )    11.13889413
 
      0     0.111E+02     0.0000000000       11.1388954993       0.00  <-- CONV
        O_D=      0.9569568 O_OD=      1.7106031 O_TOT=     11.1388955 <-- SPRD
 ------------------------------------------------------------------------------
 Cycle:      1
  WF centre and spread    1  (  1.528457, -1.585413, -1.200996 )     3.20422156
  WF centre and spread    2  (  1.479240, -1.211067, -1.593535 )     3.21914316
  WF centre and spread    3  (  1.098660, -1.308500, -1.309809 )     3.25390284
  Sum of centres and spreads (  4.106357, -4.104980, -4.104341 )     9.67726756
 
      1    -0.146E+01     0.3108363843        9.6772689272       0.01  <-- CONV
        O_D=      0.3722776 O_OD=      0.8336556 O_TOT=      9.6772689 <-- SPRD
 Delta: O_D= -0.5846791E+00 O_OD= -0.8769475E+00 O_TOT= -0.1461627E+01 <-- DLTA
 ------------------------------------------------------------------------------
 Cycle:      2
  WF centre and spread    1  (  1.525388, -1.576023, -1.204590 )     3.00439050
  WF centre and spread    2  (  1.475097, -1.214545, -1.584650 )     3.01430488
  WF centre and spread    3  (  1.106062, -1.314251, -1.314888 )     3.02321526
  Sum of centres and spreads (  4.106547, -4.104819, -4.104128 )     9.04191064
 
      2    -0.635E+00     0.3325229735        9.0419120042       0.01  <-- CONV
        O_D=      0.1129793 O_OD=      0.4575971 O_TOT=      9.0419120 <-- SPRD
 Delta: O_D= -0.2592984E+00 O_OD= -0.3760585E+00 O_TOT= -0.6353569E+00 <-- DLTA
 ------------------------------------------------------------------------------
 Cycle:      3
  WF centre and spread    1  (  1.524064, -1.573091, -1.206136 )     2.94656598
  WF centre and spread    2  (  1.473855, -1.215956, -1.581803 )     2.95408078
  WF centre and spread    3  (  1.108888, -1.315638, -1.316006 )     2.95253844
  Sum of centres and spreads (  4.106807, -4.104684, -4.103945 )     8.85318520
 
      3    -0.189E+00     0.2201319289        8.8531865714       0.02  <-- CONV
        O_D=      0.0406398 O_OD=      0.3412111 O_TOT=      8.8531866 <-- SPRD
 Delta: O_D= -0.7233948E-01 O_OD= -0.1163860E+00 O_TOT= -0.1887254E+00 <-- DLTA
 ------------------------------------------------------------------------------
 Cycle:      4
  WF centre and spread    1  (  1.523600, -1.572282, -1.206664 )     2.92785104
  WF centre and spread    2  (  1.473602, -1.216422, -1.581004 )     2.93531581
  WF centre and spread    3  (  1.109806, -1.315859, -1.316132 )     2.93275157
  Sum of centres and spreads (  4.107008, -4.104563, -4.103799 )     8.79591843
 
      4    -0.573E-01     0.1388543770        8.7959197949       0.03  <-- CONV
        O_D=      0.0230164 O_OD=      0.3015678 O_TOT=      8.7959198 <-- SPRD
 Delta: O_D= -0.1762340E-01 O_OD= -0.3964338E-01 O_TOT= -0.5726678E-01 <-- DLTA
 ------------------------------------------------------------------------------
 Cycle:      5
  WF centre and spread    1  (  1.523346, -1.571862, -1.206929 )     2.91700271
  WF centre and spread    2  (  1.473539, -1.216654, -1.580600 )     2.92506184
  WF centre and spread    3  (  1.110299, -1.315930, -1.316138 )     2.92332947
  Sum of centres and spreads (  4.107184, -4.104446, -4.103667 )     8.76539402
 
      5    -0.305E-01     0.1037136569        8.7653953829       0.04  <-- CONV
        O_D=      0.0144065 O_OD=      0.2796532 O_TOT=      8.7653954 <-- SPRD
 Delta: O_D= -0.8609892E-02 O_OD= -0.2191452E-01 O_TOT= -0.3052441E-01 <-- DLTA
 ------------------------------------------------------------------------------
 Cycle:      6
  WF centre and spread    1  (  1.523245, -1.571688, -1.207010 )     2.91231380
  WF centre and spread    2  (  1.473560, -1.216730, -1.580450 )     2.92099890
  WF centre and spread    3  (  1.110468, -1.315957, -1.316133 )     2.92045775
  Sum of centres and spreads (  4.107273, -4.104375, -4.103594 )     8.75377045
 
      6    -0.116E-01     0.0671452999        8.7537718216       0.04  <-- CONV
        O_D=      0.0112823 O_OD=      0.2711539 O_TOT=      8.7537718 <-- SPRD
 Delta: O_D= -0.3124204E-02 O_OD= -0.8499357E-02 O_TOT= -0.1162356E-01 <-- DLTA
 ------------------------------------------------------------------------------
 Cycle:      7
  WF centre and spread    1  (  1.523223, -1.571667, -1.207015 )     2.91099238
  WF centre and spread    2  (  1.473580, -1.216737, -1.580439 )     2.91984804
  WF centre and spread    3  (  1.110472, -1.315962, -1.316134 )     2.91961014
  Sum of centres and spreads (  4.107275, -4.104365, -4.103588 )     8.75045055
 
      7    -0.332E-02     0.0410952811        8.7504519194       0.05  <-- CONV
        O_D=      0.0102067 O_OD=      0.2689096 O_TOT=      8.7504519 <-- SPRD
 Delta: O_D= -0.1075596E-02 O_OD= -0.2244306E-02 O_TOT= -0.3319902E-02 <-- DLTA
 ------------------------------------------------------------------------------
 Cycle:      8
  WF centre and spread    1  (  1.523166, -1.571608, -1.207028 )     2.90934731
  WF centre and spread    2  (  1.473625, -1.216755, -1.580406 )     2.91876413
  WF centre and spread    3  (  1.110488, -1.315979, -1.316140 )     2.91949739
  Sum of centres and spreads (  4.107279, -4.104342, -4.103573 )     8.74760882
 
      8    -0.284E-02     0.0284704039        8.7476101911       0.06  <-- CONV
        O_D=      0.0096950 O_OD=      0.2665795 O_TOT=      8.7476102 <-- SPRD
 Delta: O_D= -0.5116862E-03 O_OD= -0.2330042E-02 O_TOT= -0.2841728E-02 <-- DLTA
 ------------------------------------------------------------------------------
 Cycle:      9
  WF centre and spread    1  (  1.523090, -1.571530, -1.207045 )     2.90792968
  WF centre and spread    2  (  1.473679, -1.216779, -1.580358 )     2.91796257
  WF centre and spread    3  (  1.110518, -1.316007, -1.316153 )     2.91985415
  Sum of centres and spreads (  4.107286, -4.104317, -4.103556 )     8.74574639
 
      9    -0.186E-02     0.0239831942        8.7457477591       0.06  <-- CONV
        O_D=      0.0094305 O_OD=      0.2649816 O_TOT=      8.7457478 <-- SPRD
 Delta: O_D= -0.2645368E-03 O_OD= -0.1597895E-02 O_TOT= -0.1862432E-02 <-- DLTA
 ------------------------------------------------------------------------------
 Cycle:     10
  WF centre and spread    1  (  1.522976, -1.571419, -1.207072 )     2.90645643
  WF centre and spread    2  (  1.473751, -1.216816, -1.580286 )     2.91718097
  WF centre and spread    3  (  1.110572, -1.316053, -1.316179 )     2.92049630
  Sum of centres and spreads (  4.107299, -4.104289, -4.103537 )     8.74413370
 
     10    -0.161E-02     0.0200934336        8.7441350709       0.07  <-- CONV
        O_D=      0.0092108 O_OD=      0.2635886 O_TOT=      8.7441351 <-- SPRD
 Delta: O_D= -0.2196208E-03 O_OD= -0.1393067E-02 O_TOT= -0.1612688E-02 <-- DLTA
 ------------------------------------------------------------------------------
 Cycle:     11
  WF centre and spread    1  (  1.522875, -1.571332, -1.207095 )     2.90554419
  WF centre and spread    2  (  1.473812, -1.216848, -1.580227 )     2.91670972
  WF centre and spread    3  (  1.110624, -1.316092, -1.316203 )     2.92096422
  Sum of centres and spreads (  4.107311, -4.104272, -4.103525 )     8.74321813
 
     11    -0.916E-03     0.0176294153        8.7432194966       0.08  <-- CONV
        O_D=      0.0089689 O_OD=      0.2629149 O_TOT=      8.7432195 <-- SPRD
 Delta: O_D= -0.2419169E-03 O_OD= -0.6736574E-03 O_TOT= -0.9155743E-03 <-- DLTA
 ------------------------------------------------------------------------------
 Cycle:     12
  WF centre and spread    1  (  1.522799, -1.571281, -1.207110 )     2.90510455
  WF centre and spread    2  (  1.473857, -1.216869, -1.580192 )     2.91648798
  WF centre and spread    3  (  1.110664, -1.316116, -1.316219 )     2.92121347
  Sum of centres and spreads (  4.107319, -4.104266, -4.103521 )     8.74280601
 
     12    -0.412E-03     0.0130550409        8.7428073736       0.08  <-- CONV
        O_D=      0.0088318 O_OD=      0.2626399 O_TOT=      8.7428074 <-- SPRD
 Delta: O_D= -0.1371363E-03 O_OD= -0.2749867E-03 O_TOT= -0.4121230E-03 <-- DLTA
 ------------------------------------------------------------------------------
 Cycle:     13
  WF centre and spread    1  (  1.522773, -1.571275, -1.207113 )     2.90505557
  WF centre and spread    2  (  1.473872, -1.216873, -1.580189 )     2.91643050
  WF centre and spread    3  (  1.110675, -1.316119, -1.316220 )     2.92117556
  Sum of centres and spreads (  4.107320, -4.104268, -4.103523 )     8.74266163
 
     13    -0.144E-03     0.0083849286        8.7426629990       0.09  <-- CONV
        O_D=      0.0087845 O_OD=      0.2625429 O_TOT=      8.7426630 <-- SPRD
 Delta: O_D= -0.4732298E-04 O_OD= -0.9705155E-04 O_TOT= -0.1443745E-03 <-- DLTA
 ------------------------------------------------------------------------------
 Cycle:     14
  WF centre and spread    1  (  1.522713, -1.571264, -1.207120 )     2.90500282
  WF centre and spread    2  (  1.473909, -1.216883, -1.580182 )     2.91636923
  WF centre and spread    3  (  1.110701, -1.316123, -1.316222 )     2.92117215
  Sum of centres and spreads (  4.107323, -4.104270, -4.103525 )     8.74254421
 
     14    -0.117E-03     0.0060437850        8.7425455753       0.10  <-- CONV
        O_D=      0.0087595 O_OD=      0.2624504 O_TOT=      8.7425456 <-- SPRD
 Delta: O_D= -0.2491856E-04 O_OD= -0.9250514E-04 O_TOT= -0.1174237E-03 <-- DLTA
 ------------------------------------------------------------------------------
 Cycle:     15
  WF centre and spread    1  (  1.522626, -1.571253, -1.207127 )     2.90495240
  WF centre and spread    2  (  1.473967, -1.216893, -1.580177 )     2.91630400
  WF centre and spread    3  (  1.110733, -1.316124, -1.316222 )     2.92119923
  Sum of centres and spreads (  4.107326, -4.104270, -4.103526 )     8.74245564
 
     15    -0.886E-04     0.0049971540        8.7424570032       0.11  <-- CONV
        O_D=      0.0087463 O_OD=      0.2623750 O_TOT=      8.7424570 <-- SPRD
 Delta: O_D= -0.1323034E-04 O_OD= -0.7534176E-04 O_TOT= -0.8857209E-04 <-- DLTA
 ------------------------------------------------------------------------------
 Cycle:     16
  WF centre and spread    1  (  1.522518, -1.571247, -1.207132 )     2.90490136
  WF centre and spread    2  (  1.474047, -1.216902, -1.580178 )     2.91623349
  WF centre and spread    3  (  1.110765, -1.316118, -1.316215 )     2.92125023
  Sum of centres and spreads (  4.107330, -4.104267, -4.103525 )     8.74238507
 
     16    -0.706E-04     0.0044396812        8.7423864391       0.11  <-- CONV
        O_D=      0.0087356 O_OD=      0.2623151 O_TOT=      8.7423864 <-- SPRD
 Delta: O_D= -0.1068089E-04 O_OD= -0.5988329E-04 O_TOT= -0.7056417E-04 <-- DLTA
 ------------------------------------------------------------------------------
 Cycle:     17
  WF centre and spread    1  (  1.522404, -1.571252, -1.207131 )     2.90485543
  WF centre and spread    2  (  1.474140, -1.216907, -1.580190 )     2.91616564
  WF centre and spread    3  (  1.110791, -1.316102, -1.316200 )     2.92131326
  Sum of centres and spreads (  4.107335, -4.104261, -4.103522 )     8.74233433
 
     17    -0.507E-04     0.0037973987        8.7423357002       0.12  <-- CONV
        O_D=      0.0087268 O_OD=      0.2622732 O_TOT=      8.7423357 <-- SPRD
 Delta: O_D= -0.8815980E-05 O_OD= -0.4192284E-04 O_TOT= -0.5073882E-04 <-- DLTA
 ------------------------------------------------------------------------------
 Cycle:     18
  WF centre and spread    1  (  1.522263, -1.571272, -1.207126 )     2.90480812
  WF centre and spread    2  (  1.474263, -1.216908, -1.580217 )     2.91608754
  WF centre and spread    3  (  1.110814, -1.316071, -1.316174 )     2.92139335
  Sum of centres and spreads (  4.107340, -4.104251, -4.103517 )     8.74228901
 
     18    -0.453E-04     0.0034734166        8.7422903778       0.13  <-- CONV
        O_D=      0.0087226 O_OD=      0.2622321 O_TOT=      8.7422904 <-- SPRD
 Delta: O_D= -0.4217111E-05 O_OD= -0.4110537E-04 O_TOT= -0.4532248E-04 <-- DLTA
 ------------------------------------------------------------------------------
 Cycle:     19
  WF centre and spread    1  (  1.522243, -1.571282, -1.207123 )     2.90479885
  WF centre and spread    2  (  1.474284, -1.216906, -1.580227 )     2.91606989
  WF centre and spread    3  (  1.110814, -1.316061, -1.316166 )     2.92138980
  Sum of centres and spreads (  4.107341, -4.104250, -4.103516 )     8.74225854
 
     19    -0.305E-04     0.0040033524        8.7422599068       0.13  <-- CONV
        O_D=      0.0087134 O_OD=      0.2622109 O_TOT=      8.7422599 <-- SPRD
 Delta: O_D= -0.9215040E-05 O_OD= -0.2125593E-04 O_TOT= -0.3047097E-04 <-- DLTA
 ------------------------------------------------------------------------------
 Cycle:     20
  WF centre and spread    1  (  1.522185, -1.571312, -1.207116 )     2.90479136
  WF centre and spread    2  (  1.474344, -1.216902, -1.580255 )     2.91603832
  WF centre and spread    3  (  1.110814, -1.316033, -1.316144 )     2.92140085
  Sum of centres and spreads (  4.107342, -4.104247, -4.103515 )     8.74223054
 
     20    -0.280E-04     0.0026896942        8.7422319067       0.14  <-- CONV
        O_D=      0.0087120 O_OD=      0.2621842 O_TOT=      8.7422319 <-- SPRD
 Delta: O_D= -0.1360075E-05 O_OD= -0.2664002E-04 O_TOT= -0.2800010E-04 <-- DLTA
 ------------------------------------------------------------------------------
 Cycle:     21
  WF centre and spread    1  (  1.522051, -1.571376, -1.207101 )     2.90478723
  WF centre and spread    2  (  1.474478, -1.216894, -1.580317 )     2.91597729
  WF centre and spread    3  (  1.110816, -1.315971, -1.316096 )     2.92142810
  Sum of centres and spreads (  4.107345, -4.104241, -4.103513 )     8.74219262
 
     21    -0.379E-04     0.0027382769        8.7421939836       0.15  <-- CONV
        O_D=      0.0087141 O_OD=      0.2621443 O_TOT=      8.7421940 <-- SPRD
 Delta: O_D=  0.2025712E-05 O_OD= -0.3994883E-04 O_TOT= -0.3792311E-04 <-- DLTA
 ------------------------------------------------------------------------------
 Cycle:     22
  WF centre and spread    1  (  1.521833, -1.571476, -1.207081 )     2.90479309
  WF centre and spread    2  (  1.474691, -1.216883, -1.580411 )     2.91588689
  WF centre and spread    3  (  1.110825, -1.315874, -1.316019 )     2.92146459
  Sum of centres and spreads (  4.107349, -4.104233, -4.103511 )     8.74214457
 
     22    -0.480E-04     0.0033164914        8.7421459384       0.15  <-- CONV
        O_D=      0.0087162 O_OD=      0.2620941 O_TOT=      8.7421459 <-- SPRD
 Delta: O_D=  0.2101598E-05 O_OD= -0.5014677E-04 O_TOT= -0.4804517E-04 <-- DLTA
 ------------------------------------------------------------------------------
 Cycle:     23
  WF centre and spread    1  (  1.521490, -1.571624, -1.207058 )     2.90481981
  WF centre and spread    2  (  1.475016, -1.216871, -1.580549 )     2.91575658
  WF centre and spread    3  (  1.110847, -1.315728, -1.315904 )     2.92150481
  Sum of centres and spreads (  4.107352, -4.104223, -4.103511 )     8.74208120
 
     23    -0.634E-04     0.0036394787        8.7420825694       0.16  <-- CONV
        O_D=      0.0087210 O_OD=      0.2620259 O_TOT=      8.7420826 <-- SPRD
 Delta: O_D=  0.4874739E-05 O_OD= -0.6824375E-04 O_TOT= -0.6336902E-04 <-- DLTA
 ------------------------------------------------------------------------------
 Cycle:     24
  WF centre and spread    1  (  1.520992, -1.571830, -1.207034 )     2.90487258
  WF centre and spread    2  (  1.475478, -1.216861, -1.580738 )     2.91558018
  WF centre and spread    3  (  1.110887, -1.315521, -1.315741 )     2.92154552
  Sum of centres and spreads (  4.107356, -4.104211, -4.103514 )     8.74199828
 
     24    -0.829E-04     0.0044592169        8.7419996516       0.17  <-- CONV
        O_D=      0.0087376 O_OD=      0.2619264 O_TOT=      8.7419997 <-- SPRD
 Delta: O_D=  0.1659631E-04 O_OD= -0.9951406E-04 O_TOT= -0.8291775E-04 <-- DLTA
 ------------------------------------------------------------------------------
 Cycle:     25
  WF centre and spread    1  (  1.520968, -1.571837, -1.207037 )     2.90485960
  WF centre and spread    2  (  1.475495, -1.216863, -1.580744 )     2.91555348
  WF centre and spread    3  (  1.110892, -1.315513, -1.315735 )     2.92151046
  Sum of centres and spreads (  4.107355, -4.104213, -4.103515 )     8.74192354
 
     25    -0.747E-04     0.0061589591        8.7419249103       0.18  <-- CONV
        O_D=      0.0087138 O_OD=      0.2618755 O_TOT=      8.7419249 <-- SPRD
 Delta: O_D= -0.2386746E-04 O_OD= -0.5087388E-04 O_TOT= -0.7474134E-04 <-- DLTA
 ------------------------------------------------------------------------------
 Cycle:     26
  WF centre and spread    1  (  1.520914, -1.571854, -1.207042 )     2.90486405
  WF centre and spread    2  (  1.475536, -1.216867, -1.580757 )     2.91552955
  WF centre and spread    3  (  1.110903, -1.315495, -1.315720 )     2.92147229
  Sum of centres and spreads (  4.107353, -4.104215, -4.103519 )     8.74186589
 
     26    -0.577E-04     0.0042538044        8.7418672600       0.18  <-- CONV
        O_D=      0.0087043 O_OD=      0.2618273 O_TOT=      8.7418673 <-- SPRD
 Delta: O_D= -0.9508284E-05 O_OD= -0.4814197E-04 O_TOT= -0.5765026E-04 <-- DLTA
 ------------------------------------------------------------------------------
 Cycle:     27
  WF centre and spread    1  (  1.520830, -1.571882, -1.207047 )     2.90488537
  WF centre and spread    2  (  1.475603, -1.216871, -1.580780 )     2.91550492
  WF centre and spread    3  (  1.110917, -1.315464, -1.315696 )     2.92143045
  Sum of centres and spreads (  4.107350, -4.104217, -4.103523 )     8.74182074
 
     27    -0.452E-04     0.0034927635        8.7418221068       0.19  <-- CONV
        O_D=      0.0086995 O_OD=      0.2617870 O_TOT=      8.7418221 <-- SPRD
 Delta: O_D= -0.4770267E-05 O_OD= -0.4038294E-04 O_TOT= -0.4515321E-04 <-- DLTA
 ------------------------------------------------------------------------------
 Cycle:     28
  WF centre and spread    1  (  1.520727, -1.571921, -1.207051 )     2.90491497
  WF centre and spread    2  (  1.475690, -1.216874, -1.580812 )     2.91547848
  WF centre and spread    3  (  1.110931, -1.315423, -1.315662 )     2.92139148
  Sum of centres and spreads (  4.107348, -4.104217, -4.103526 )     8.74178493
 
     28    -0.358E-04     0.0032229632        8.7417862932       0.20  <-- CONV
        O_D=      0.0086948 O_OD=      0.2617558 O_TOT=      8.7417863 <-- SPRD
 Delta: O_D= -0.4694323E-05 O_OD= -0.3111929E-04 O_TOT= -0.3581361E-04 <-- DLTA
 ------------------------------------------------------------------------------
 Cycle:     29
  WF centre and spread    1  (  1.520617, -1.571967, -1.207052 )     2.90494429
  WF centre and spread    2  (  1.475789, -1.216874, -1.580851 )     2.91544981
  WF centre and spread    3  (  1.110942, -1.315374, -1.315623 )     2.92136503
  Sum of centres and spreads (  4.107348, -4.104216, -4.103527 )     8.74175913
 
     29    -0.258E-04     0.0026766842        8.7417604995       0.20  <-- CONV
        O_D=      0.0086932 O_OD=      0.2617316 O_TOT=      8.7417605 <-- SPRD
 Delta: O_D= -0.1540886E-05 O_OD= -0.2425280E-04 O_TOT= -0.2579369E-04 <-- DLTA
 ------------------------------------------------------------------------------
 Cycle:     30
  WF centre and spread    1  (  1.520465, -1.572035, -1.207050 )     2.90497853
  WF centre and spread    2  (  1.475931, -1.216873, -1.580910 )     2.91540702
  WF centre and spread    3  (  1.110953, -1.315303, -1.315566 )     2.92134725
  Sum of centres and spreads (  4.107349, -4.104212, -4.103527 )     8.74173281
 
     30    -0.263E-04     0.0025214576        8.7417341797       0.21  <-- CONV
        O_D=      0.0086984 O_OD=      0.2617001 O_TOT=      8.7417342 <-- SPRD
 Delta: O_D=  0.5159613E-05 O_OD= -0.3147942E-04 O_TOT= -0.2631980E-04 <-- DLTA
 ------------------------------------------------------------------------------
 Cycle:     31
  WF centre and spread    1  (  1.520446, -1.572045, -1.207049 )     2.90497168
  WF centre and spread    2  (  1.475951, -1.216872, -1.580919 )     2.91539190
  WF centre and spread    3  (  1.110953, -1.315293, -1.315559 )     2.92134477
  Sum of centres and spreads (  4.107350, -4.104211, -4.103527 )     8.74170835
 
     31    -0.245E-04     0.0035594278        8.7417097209       0.22  <-- CONV
        O_D=      0.0086912 O_OD=      0.2616828 O_TOT=      8.7417097 <-- SPRD
 Delta: O_D= -0.7164901E-05 O_OD= -0.1729396E-04 O_TOT= -0.2445886E-04 <-- DLTA
 ------------------------------------------------------------------------------
 Cycle:     32
  WF centre and spread    1  (  1.520387, -1.572076, -1.207046 )     2.90496756
  WF centre and spread    2  (  1.476009, -1.216870, -1.580946 )     2.91536289
  WF centre and spread    3  (  1.110954, -1.315263, -1.315535 )     2.92135395
  Sum of centres and spreads (  4.107351, -4.104209, -4.103526 )     8.74168440
 
     32    -0.239E-04     0.0024381437        8.7416857710       0.22  <-- CONV
        O_D=      0.0086907 O_OD=      0.2616594 O_TOT=      8.7416858 <-- SPRD
 Delta: O_D= -0.5662980E-06 O_OD= -0.2338360E-04 O_TOT= -0.2394989E-04 <-- DLTA
 ------------------------------------------------------------------------------
 Cycle:     33
  WF centre and spread    1  (  1.520255, -1.572141, -1.207040 )     2.90496971
  WF centre and spread    2  (  1.476140, -1.216866, -1.581003 )     2.91530681
  WF centre and spread    3  (  1.110959, -1.315198, -1.315483 )     2.92137427
  Sum of centres and spreads (  4.107353, -4.104205, -4.103526 )     8.74165079
 
     33    -0.336E-04     0.0025803084        8.7416521602       0.23  <-- CONV
        O_D=      0.0086926 O_OD=      0.2616239 O_TOT=      8.7416522 <-- SPRD
 Delta: O_D=  0.1957424E-05 O_OD= -0.3556825E-04 O_TOT= -0.3361083E-04 <-- DLTA
 ------------------------------------------------------------------------------
 Cycle:     34
  WF centre and spread    1  (  1.520044, -1.572241, -1.207034 )     2.90498491
  WF centre and spread    2  (  1.476343, -1.216862, -1.581090 )     2.91522683
  WF centre and spread    3  (  1.110969, -1.315096, -1.315402 )     2.92139710
  Sum of centres and spreads (  4.107356, -4.104199, -4.103526 )     8.74160884
 
     34    -0.420E-04     0.0031030110        8.7416102096       0.24  <-- CONV
        O_D=      0.0086941 O_OD=      0.2615805 O_TOT=      8.7416102 <-- SPRD
 Delta: O_D=  0.1429994E-05 O_OD= -0.4338058E-04 O_TOT= -0.4195059E-04 <-- DLTA
 ------------------------------------------------------------------------------
 Cycle:     35
  WF centre and spread    1  (  1.519730, -1.572381, -1.207031 )     2.90502210
  WF centre and spread    2  (  1.476637, -1.216859, -1.581210 )     2.91511926
  WF centre and spread    3  (  1.110991, -1.314950, -1.315285 )     2.92141495
  Sum of centres and spreads (  4.107358, -4.104191, -4.103526 )     8.74155631
 
     35    -0.525E-04     0.0033808513        8.7415576786       0.25  <-- CONV
        O_D=      0.0086985 O_OD=      0.2615235 O_TOT=      8.7415577 <-- SPRD
 Delta: O_D=  0.4408488E-05 O_OD= -0.5693949E-04 O_TOT= -0.5253100E-04 <-- DLTA
 ------------------------------------------------------------------------------
 Cycle:     36
  WF centre and spread    1  (  1.519296, -1.572567, -1.207034 )     2.90508447
  WF centre and spread    2  (  1.477036, -1.216860, -1.581366 )     2.91498166
  WF centre and spread    3  (  1.111028, -1.314754, -1.315128 )     2.92142482
  Sum of centres and spreads (  4.107360, -4.104181, -4.103529 )     8.74149095
 
     36    -0.654E-04     0.0040012496        8.7414923164       0.25  <-- CONV
        O_D=      0.0087137 O_OD=      0.2614430 O_TOT=      8.7414923 <-- SPRD
 Delta: O_D=  0.1523033E-04 O_OD= -0.8059246E-04 O_TOT= -0.6536213E-04 <-- DLTA
 ------------------------------------------------------------------------------
 Cycle:     37
  WF centre and spread    1  (  1.519275, -1.572573, -1.207037 )     2.90507381
  WF centre and spread    2  (  1.477052, -1.216862, -1.581371 )     2.91495950
  WF centre and spread    3  (  1.111032, -1.314747, -1.315122 )     2.92139638
  Sum of centres and spreads (  4.107359, -4.104182, -4.103530 )     8.74142969
 
     37    -0.613E-04     0.0055652449        8.7414310588       0.26  <-- CONV
        O_D=      0.0086938 O_OD=      0.2614016 O_TOT=      8.7414311 <-- SPRD
 Delta: O_D= -0.1989729E-04 O_OD= -0.4136035E-04 O_TOT= -0.6125764E-04 <-- DLTA
 ------------------------------------------------------------------------------
 Cycle:     38
  WF centre and spread    1  (  1.519224, -1.572588, -1.207043 )     2.90507759
  WF centre and spread    2  (  1.477091, -1.216866, -1.581382 )     2.91493853
  WF centre and spread    3  (  1.111042, -1.314729, -1.315107 )     2.92136470
  Sum of centres and spreads (  4.107357, -4.104184, -4.103533 )     8.74138081
 
     38    -0.489E-04     0.0038750817        8.7413821797       0.27  <-- CONV
        O_D=      0.0086856 O_OD=      0.2613610 O_TOT=      8.7413822 <-- SPRD
 Delta: O_D= -0.8253507E-05 O_OD= -0.4062563E-04 O_TOT= -0.4887914E-04 <-- DLTA
 ------------------------------------------------------------------------------
 Cycle:     39
  WF centre and spread    1  (  1.519146, -1.572614, -1.207051 )     2.90509484
  WF centre and spread    2  (  1.477154, -1.216870, -1.581402 )     2.91491593
  WF centre and spread    3  (  1.111055, -1.314700, -1.315082 )     2.92133114
  Sum of centres and spreads (  4.107355, -4.104184, -4.103535 )     8.74134191
 
     39    -0.389E-04     0.0032521701        8.7413432814       0.27  <-- CONV
        O_D=      0.0086809 O_OD=      0.2613267 O_TOT=      8.7413433 <-- SPRD
 Delta: O_D= -0.4643122E-05 O_OD= -0.3425513E-04 O_TOT= -0.3889825E-04 <-- DLTA
 ------------------------------------------------------------------------------
 Cycle:     40
  WF centre and spread    1  (  1.519051, -1.572648, -1.207058 )     2.90511832
  WF centre and spread    2  (  1.477234, -1.216874, -1.581429 )     2.91489070
  WF centre and spread    3  (  1.111069, -1.314661, -1.315049 )     2.92130222
  Sum of centres and spreads (  4.107354, -4.104183, -4.103537 )     8.74131124
 
     40    -0.307E-04     0.0029718946        8.7413126047       0.28  <-- CONV
        O_D=      0.0086765 O_OD=      0.2613004 O_TOT=      8.7413126 <-- SPRD
 Delta: O_D= -0.4408642E-05 O_OD= -0.2626808E-04 O_TOT= -0.3067672E-04 <-- DLTA
 ------------------------------------------------------------------------------
 Cycle:     41
  WF centre and spread    1  (  1.518951, -1.572689, -1.207063 )     2.90514047
  WF centre and spread    2  (  1.477323, -1.216876, -1.581462 )     2.91486277
  WF centre and spread    3  (  1.111080, -1.314617, -1.315012 )     2.92128617
  Sum of centres and spreads (  4.107354, -4.104181, -4.103537 )     8.74128941
 
     41    -0.218E-04     0.0024820846        8.7412907766       0.29  <-- CONV
        O_D=      0.0086751 O_OD=      0.2612800 O_TOT=      8.7412908 <-- SPRD
 Delta: O_D= -0.1415067E-05 O_OD= -0.2041306E-04 O_TOT= -0.2182813E-04 <-- DLTA
 ------------------------------------------------------------------------------
 Cycle:     42
  WF centre and spread    1  (  1.518815, -1.572748, -1.207068 )     2.90516486
  WF centre and spread    2  (  1.477449, -1.216877, -1.581510 )     2.91482180
  WF centre and spread    3  (  1.111091, -1.314552, -1.314959 )     2.92128127
  Sum of centres and spreads (  4.107355, -4.104177, -4.103537 )     8.74126792
 
     42    -0.215E-04     0.0022958544        8.7412692885       0.30  <-- CONV
        O_D=      0.0086795 O_OD=      0.2612542 O_TOT=      8.7412693 <-- SPRD
 Delta: O_D=  0.4385374E-05 O_OD= -0.2587343E-04 O_TOT= -0.2148806E-04 <-- DLTA
 ------------------------------------------------------------------------------
 Cycle:     43
  WF centre and spread    1  (  1.518797, -1.572757, -1.207068 )     2.90515916
  WF centre and spread    2  (  1.477467, -1.216877, -1.581518 )     2.91480833
  WF centre and spread    3  (  1.111092, -1.314543, -1.314951 )     2.92128005
  Sum of centres and spreads (  4.107355, -4.104177, -4.103537 )     8.74124753
 
     43    -0.204E-04     0.0032422785        8.7412488981       0.30  <-- CONV
        O_D=      0.0086734 O_OD=      0.2612398 O_TOT=      8.7412489 <-- SPRD
 Delta: O_D= -0.6046570E-05 O_OD= -0.1434384E-04 O_TOT= -0.2039041E-04 <-- DLTA
 ------------------------------------------------------------------------------
 Cycle:     44
  WF centre and spread    1  (  1.518741, -1.572785, -1.207068 )     2.90515604
  WF centre and spread    2  (  1.477521, -1.216876, -1.581542 )     2.91478112
  WF centre and spread    3  (  1.111094, -1.314514, -1.314928 )     2.92128974
  Sum of centres and spreads (  4.107356, -4.104175, -4.103537 )     8.74122690
 
     44    -0.206E-04     0.0022391648        8.7412282694       0.31  <-- CONV
        O_D=      0.0086730 O_OD=      0.2612196 O_TOT=      8.7412283 <-- SPRD
 Delta: O_D= -0.4425244E-06 O_OD= -0.2018614E-04 O_TOT= -0.2062866E-04 <-- DLTA
 ------------------------------------------------------------------------------
 Cycle:     45
  WF centre and spread    1  (  1.518616, -1.572847, -1.207070 )     2.90515966
  WF centre and spread    2  (  1.477643, -1.216875, -1.581592 )     2.91472905
  WF centre and spread    3  (  1.111100, -1.314450, -1.314876 )     2.92130917
  Sum of centres and spreads (  4.107358, -4.104172, -4.103537 )     8.74119787
 
     45    -0.290E-04     0.0024107442        8.7411992408       0.32  <-- CONV
        O_D=      0.0086749 O_OD=      0.2611887 O_TOT=      8.7411992 <-- SPRD
 Delta: O_D=  0.1874768E-05 O_OD= -0.3090336E-04 O_TOT= -0.2902859E-04 <-- DLTA
 ------------------------------------------------------------------------------
 Cycle:     46
  WF centre and spread    1  (  1.518417, -1.572940, -1.207075 )     2.90517706
  WF centre and spread    2  (  1.477831, -1.216876, -1.581668 )     2.91465553
  WF centre and spread    3  (  1.111112, -1.314350, -1.314795 )     2.92132904
  Sum of centres and spreads (  4.107360, -4.104166, -4.103537 )     8.74116163
 
     46    -0.362E-04     0.0028723009        8.7411629992       0.32  <-- CONV
        O_D=      0.0086765 O_OD=      0.2611509 O_TOT=      8.7411630 <-- SPRD
 Delta: O_D=  0.1600155E-05 O_OD= -0.3784180E-04 O_TOT= -0.3624164E-04 <-- DLTA
 ------------------------------------------------------------------------------
 Cycle:     47
  WF centre and spread    1  (  1.518126, -1.573070, -1.207087 )     2.90521649
  WF centre and spread    2  (  1.478101, -1.216879, -1.581773 )     2.91455881
  WF centre and spread    3  (  1.111135, -1.314209, -1.314678 )     2.92134137
  Sum of centres and spreads (  4.107362, -4.104159, -4.103538 )     8.74111668
 
     47    -0.450E-04     0.0031485869        8.7411180472       0.33  <-- CONV
        O_D=      0.0086807 O_OD=      0.2611017 O_TOT=      8.7411180 <-- SPRD
 Delta: O_D=  0.4214056E-05 O_OD= -0.4916605E-04 O_TOT= -0.4495199E-04 <-- DLTA
 ------------------------------------------------------------------------------
 Cycle:     48
  WF centre and spread    1  (  1.517734, -1.573239, -1.207109 )     2.90527958
  WF centre and spread    2  (  1.478458, -1.216888, -1.581905 )     2.91443968
  WF centre and spread    3  (  1.111171, -1.314023, -1.314525 )     2.92134320
  Sum of centres and spreads (  4.107363, -4.104150, -4.103540 )     8.74106246
 
     48    -0.542E-04     0.0036718803        8.7410638301       0.34  <-- CONV
        O_D=      0.0086939 O_OD=      0.2610343 O_TOT=      8.7410638 <-- SPRD
 Delta: O_D=  0.1324064E-04 O_OD= -0.6745773E-04 O_TOT= -0.5421708E-04 <-- DLTA
 ------------------------------------------------------------------------------
 Cycle:     49
  WF centre and spread    1  (  1.517715, -1.573245, -1.207113 )     2.90527117
  WF centre and spread    2  (  1.478473, -1.216890, -1.581909 )     2.91442116
  WF centre and spread    3  (  1.111175, -1.314016, -1.314519 )     2.92131878
  Sum of centres and spreads (  4.107363, -4.104151, -4.103541 )     8.74101111
 
     49    -0.514E-04     0.0050884098        8.7410124730       0.34  <-- CONV
        O_D=      0.0086768 O_OD=      0.2610000 O_TOT=      8.7410125 <-- SPRD
 Delta: O_D= -0.1714376E-04 O_OD= -0.3421339E-04 O_TOT= -0.5135715E-04 <-- DLTA
 ------------------------------------------------------------------------------
 Cycle:     50
  WF centre and spread    1  (  1.517667, -1.573260, -1.207120 )     2.90527574
  WF centre and spread    2  (  1.478510, -1.216894, -1.581920 )     2.91440326
  WF centre and spread    3  (  1.111184, -1.313998, -1.314503 )     2.92129016
  Sum of centres and spreads (  4.107361, -4.104152, -4.103543 )     8.74096915
 
     50    -0.420E-04     0.0035643093        8.7409705163       0.35  <-- CONV
        O_D=      0.0086692 O_OD=      0.2609656 O_TOT=      8.7409705 <-- SPRD
 Delta: O_D= -0.7539419E-05 O_OD= -0.3441730E-04 O_TOT= -0.4195672E-04 <-- DLTA
 ------------------------------------------------------------------------------
 Cycle:     51
  WF centre and spread    1  (  1.517594, -1.573285, -1.207130 )     2.90529203
  WF centre and spread    2  (  1.478569, -1.216899, -1.581938 )     2.91438381
  WF centre and spread    3  (  1.111196, -1.313968, -1.314477 )     2.92125979
  Sum of centres and spreads (  4.107359, -4.104152, -4.103545 )     8.74093563
 
     51    -0.335E-04     0.0030299587        8.7409369991       0.36  <-- CONV
        O_D=      0.0086648 O_OD=      0.2609365 O_TOT=      8.7409370 <-- SPRD
 Delta: O_D= -0.4403638E-05 O_OD= -0.2911349E-04 O_TOT= -0.3351713E-04 <-- DLTA
 ------------------------------------------------------------------------------
 Cycle:     52
  WF centre and spread    1  (  1.517506, -1.573319, -1.207141 )     2.90531360
  WF centre and spread    2  (  1.478644, -1.216903, -1.581962 )     2.91436166
  WF centre and spread    3  (  1.111209, -1.313929, -1.314443 )     2.92123401
  Sum of centres and spreads (  4.107358, -4.104151, -4.103546 )     8.74090928
 
     52    -0.264E-04     0.0027470324        8.7409106482       0.37  <-- CONV
        O_D=      0.0086609 O_OD=      0.2609141 O_TOT=      8.7409106 <-- SPRD
 Delta: O_D= -0.3968789E-05 O_OD= -0.2238217E-04 O_TOT= -0.2635096E-04 <-- DLTA
 ------------------------------------------------------------------------------
 Cycle:     53
  WF centre and spread    1  (  1.517413, -1.573357, -1.207150 )     2.90533355
  WF centre and spread    2  (  1.478726, -1.216907, -1.581991 )     2.91433673
  WF centre and spread    3  (  1.111219, -1.313884, -1.314405 )     2.92122029
  Sum of centres and spreads (  4.107358, -4.104148, -4.103547 )     8.74089057
 
     53    -0.187E-04     0.0023065062        8.7408919381       0.37  <-- CONV
        O_D=      0.0086596 O_OD=      0.2608967 O_TOT=      8.7408919 <-- SPRD
 Delta: O_D= -0.1231772E-05 O_OD= -0.1747827E-04 O_TOT= -0.1871004E-04 <-- DLTA
 ------------------------------------------------------------------------------
 Cycle:     54
  WF centre and spread    1  (  1.517289, -1.573412, -1.207161 )     2.90535481
  WF centre and spread    2  (  1.478839, -1.216910, -1.582033 )     2.91430043
  WF centre and spread    3  (  1.111230, -1.313822, -1.314353 )     2.92121738
  Sum of centres and spreads (  4.107359, -4.104145, -4.103547 )     8.74087262
 
     54    -0.180E-04     0.0021110241        8.7408739841       0.38  <-- CONV
        O_D=      0.0086634 O_OD=      0.2608749 O_TOT=      8.7408740 <-- SPRD
 Delta: O_D=  0.3808494E-05 O_OD= -0.2176255E-04 O_TOT= -0.1795406E-04 <-- DLTA
 ------------------------------------------------------------------------------
 Cycle:     55
  WF centre and spread    1  (  1.517273, -1.573421, -1.207161 )     2.90535009
  WF centre and spread    2  (  1.478856, -1.216911, -1.582040 )     2.91428858
  WF centre and spread    3  (  1.111231, -1.313813, -1.314346 )     2.92121675
  Sum of centres and spreads (  4.107359, -4.104144, -4.103547 )     8.74085542
 
     55    -0.172E-04     0.0029723206        8.7408567922       0.39  <-- CONV
        O_D=      0.0086582 O_OD=      0.2608629 O_TOT=      8.7408568 <-- SPRD
 Delta: O_D= -0.5186771E-05 O_OD= -0.1200512E-04 O_TOT= -0.1719189E-04 <-- DLTA
 ------------------------------------------------------------------------------
 Cycle:     56
  WF centre and spread    1  (  1.517220, -1.573447, -1.207165 )     2.90534795
  WF centre and spread    2  (  1.478907, -1.216911, -1.582061 )     2.91426380
  WF centre and spread    3  (  1.111234, -1.313785, -1.314322 )     2.92122587
  Sum of centres and spreads (  4.107360, -4.104143, -4.103547 )     8.74083763
 
     56    -0.178E-04     0.0020648051        8.7408389934       0.39  <-- CONV
        O_D=      0.0086579 O_OD=      0.2608455 O_TOT=      8.7408390 <-- SPRD
 Delta: O_D= -0.3696808E-06 O_OD= -0.1742906E-04 O_TOT= -0.1779874E-04 <-- DLTA
 ------------------------------------------------------------------------------
 Cycle:     57
  WF centre and spread    1  (  1.517102, -1.573505, -1.207172 )     2.90535274
  WF centre and spread    2  (  1.479018, -1.216913, -1.582105 )     2.91421678
  WF centre and spread    3  (  1.111241, -1.313722, -1.314270 )     2.92124309
  Sum of centres and spreads (  4.107361, -4.104140, -4.103547 )     8.74081262
 
     57    -0.250E-04     0.0022456705        8.7408139901       0.40  <-- CONV
        O_D=      0.0086597 O_OD=      0.2608186 O_TOT=      8.7408140 <-- SPRD
 Delta: O_D=  0.1825385E-05 O_OD= -0.2682872E-04 O_TOT= -0.2500333E-04 <-- DLTA
 ------------------------------------------------------------------------------
 Cycle:     58
  WF centre and spread    1  (  1.516915, -1.573593, -1.207187 )     2.90537126
  WF centre and spread    2  (  1.479193, -1.216918, -1.582172 )     2.91415060
  WF centre and spread    3  (  1.111255, -1.313625, -1.314189 )     2.92125954
  Sum of centres and spreads (  4.107363, -4.104135, -4.103547 )     8.74078140
 
     58    -0.312E-04     0.0026587521        8.7407827680       0.41  <-- CONV
        O_D=      0.0086615 O_OD=      0.2607856 O_TOT=      8.7407828 <-- SPRD
 Delta: O_D=  0.1758341E-05 O_OD= -0.3298043E-04 O_TOT= -0.3122209E-04 <-- DLTA
 ------------------------------------------------------------------------------
 Cycle:     59
  WF centre and spread    1  (  1.516644, -1.573715, -1.207212 )     2.90541091
  WF centre and spread    2  (  1.479442, -1.216927, -1.582263 )     2.91406412
  WF centre and spread    3  (  1.111279, -1.313486, -1.314072 )     2.92126777
  Sum of centres and spreads (  4.107365, -4.104128, -4.103548 )     8.74074280
 
     59    -0.386E-04     0.0029286829        8.7407441640       0.41  <-- CONV
        O_D=      0.0086655 O_OD=      0.2607430 O_TOT=      8.7407442 <-- SPRD
 Delta: O_D=  0.4033599E-05 O_OD= -0.4263759E-04 O_TOT= -0.3860399E-04 <-- DLTA
 ------------------------------------------------------------------------------
 Cycle:     60
  WF centre and spread    1  (  1.516287, -1.573871, -1.207250 )     2.90547206
  WF centre and spread    2  (  1.479764, -1.216941, -1.582378 )     2.91395995
  WF centre and spread    3  (  1.111315, -1.313308, -1.313921 )     2.92126525
  Sum of centres and spreads (  4.107366, -4.104120, -4.103549 )     8.74069726
 
     60    -0.455E-04     0.0033825442        8.7406986252       0.42  <-- CONV
        O_D=      0.0086771 O_OD=      0.2606858 O_TOT=      8.7406986 <-- SPRD
 Delta: O_D=  0.1162685E-04 O_OD= -0.5716565E-04 O_TOT= -0.4553881E-04 <-- DLTA
 ------------------------------------------------------------------------------
 Cycle:     61
  WF centre and spread    1  (  1.516269, -1.573877, -1.207254 )     2.90546534
  WF centre and spread    2  (  1.479778, -1.216943, -1.582382 )     2.91394410
  WF centre and spread    3  (  1.111318, -1.313300, -1.313915 )     2.92124440
  Sum of centres and spreads (  4.107365, -4.104120, -4.103550 )     8.74065383
 
     61    -0.434E-04     0.0046739184        8.7406552022       0.43  <-- CONV
        O_D=      0.0086622 O_OD=      0.2606574 O_TOT=      8.7406552 <-- SPRD
 Delta: O_D= -0.1494744E-04 O_OD= -0.2847559E-04 O_TOT= -0.4342302E-04 <-- DLTA
 ------------------------------------------------------------------------------
 Cycle:     62
  WF centre and spread    1  (  1.516224, -1.573892, -1.207263 )     2.90547032
  WF centre and spread    2  (  1.479813, -1.216947, -1.582391 )     2.91392825
  WF centre and spread    3  (  1.111326, -1.313281, -1.313898 )     2.92121912
  Sum of centres and spreads (  4.107363, -4.104121, -4.103552 )     8.74061769
 
     62    -0.361E-04     0.0032886776        8.7406190616       0.44  <-- CONV
        O_D=      0.0086552 O_OD=      0.2606282 O_TOT=      8.7406191 <-- SPRD
 Delta: O_D= -0.6939824E-05 O_OD= -0.2920074E-04 O_TOT= -0.3614056E-04 <-- DLTA
 ------------------------------------------------------------------------------
 Cycle:     63
  WF centre and spread    1  (  1.516157, -1.573917, -1.207275 )     2.90548569
  WF centre and spread    2  (  1.479868, -1.216953, -1.582408 )     2.91391091
  WF centre and spread    3  (  1.111337, -1.313251, -1.313871 )     2.92119222
  Sum of centres and spreads (  4.107362, -4.104121, -4.103554 )     8.74058881
 
     63    -0.289E-04     0.0028227871        8.7405901788       0.44  <-- CONV
        O_D=      0.0086511 O_OD=      0.2606034 O_TOT=      8.7405902 <-- SPRD
 Delta: O_D= -0.4143795E-05 O_OD= -0.2473903E-04 O_TOT= -0.2888283E-04 <-- DLTA
 ------------------------------------------------------------------------------
 Cycle:     64
  WF centre and spread    1  (  1.516075, -1.573949, -1.207289 )     2.90550579
  WF centre and spread    2  (  1.479937, -1.216959, -1.582429 )     2.91389103
  WF centre and spread    3  (  1.111349, -1.313212, -1.313837 )     2.92116936
  Sum of centres and spreads (  4.107361, -4.104120, -4.103555 )     8.74056617
 
     64    -0.226E-04     0.0025428565        8.7405675406       0.45  <-- CONV
        O_D=      0.0086475 O_OD=      0.2605844 O_TOT=      8.7405675 <-- SPRD
 Delta: O_D= -0.3591721E-05 O_OD= -0.1904645E-04 O_TOT= -0.2263817E-04 <-- DLTA
 ------------------------------------------------------------------------------
 Cycle:     65
  WF centre and spread    1  (  1.515989, -1.573986, -1.207301 )     2.90552439
  WF centre and spread    2  (  1.480013, -1.216963, -1.582455 )     2.91386853
  WF centre and spread    3  (  1.111359, -1.313168, -1.313799 )     2.92115716
  Sum of centres and spreads (  4.107361, -4.104117, -4.103555 )     8.74055008
 
     65    -0.161E-04     0.0021428723        8.7405514518       0.46  <-- CONV
        O_D=      0.0086464 O_OD=      0.2605694 O_TOT=      8.7405515 <-- SPRD
 Delta: O_D= -0.1090703E-05 O_OD= -0.1499811E-04 O_TOT= -0.1608881E-04 <-- DLTA
 ------------------------------------------------------------------------------
 Cycle:     66
  WF centre and spread    1  (  1.515876, -1.574037, -1.207316 )     2.90554399
  WF centre and spread    2  (  1.480115, -1.216969, -1.582491 )     2.91383621
  WF centre and spread    3  (  1.111371, -1.313109, -1.313747 )     2.92115473
  Sum of centres and spreads (  4.107362, -4.104114, -4.103555 )     8.74053493
 
     66    -0.152E-04     0.0019473050        8.7405362949       0.46  <-- CONV
        O_D=      0.0086497 O_OD=      0.2605509 O_TOT=      8.7405363 <-- SPRD
 Delta: O_D=  0.3328839E-05 O_OD= -0.1848576E-04 O_TOT= -0.1515692E-04 <-- DLTA
 ------------------------------------------------------------------------------
 Cycle:     67
  WF centre and spread    1  (  1.515860, -1.574045, -1.207318 )     2.90554015
  WF centre and spread    2  (  1.480130, -1.216969, -1.582497 )     2.91382579
  WF centre and spread    3  (  1.111372, -1.313100, -1.313740 )     2.92115439
  Sum of centres and spreads (  4.107362, -4.104114, -4.103555 )     8.74052033
 
     67    -0.146E-04     0.0027349938        8.7405216987       0.47  <-- CONV
        O_D=      0.0086452 O_OD=      0.2605408 O_TOT=      8.7405217 <-- SPRD
 Delta: O_D= -0.4486004E-05 O_OD= -0.1011021E-04 O_TOT= -0.1459621E-04 <-- DLTA
 ------------------------------------------------------------------------------
 Cycle:     68
  WF centre and spread    1  (  1.515810, -1.574070, -1.207324 )     2.90553899
  WF centre and spread    2  (  1.480178, -1.216971, -1.582516 )     2.91380343
  WF centre and spread    3  (  1.111375, -1.313072, -1.313716 )     2.92116253
  Sum of centres and spreads (  4.107362, -4.104113, -4.103555 )     8.74050495
 
     68    -0.154E-04     0.0019091367        8.7405063155       0.48  <-- CONV
        O_D=      0.0086449 O_OD=      0.2605257 O_TOT=      8.7405063 <-- SPRD
 Delta: O_D= -0.2980853E-06 O_OD= -0.1508514E-04 O_TOT= -0.1538322E-04 <-- DLTA
 ------------------------------------------------------------------------------
 Cycle:     69
  WF centre and spread    1  (  1.515700, -1.574124, -1.207337 )     2.90554494
  WF centre and spread    2  (  1.480281, -1.216976, -1.582555 )     2.91376126
  WF centre and spread    3  (  1.111383, -1.313011, -1.313664 )     2.92117721
  Sum of centres and spreads (  4.107363, -4.104110, -4.103556 )     8.74048341
 
     69    -0.215E-04     0.0020917627        8.7404847768       0.48  <-- CONV
        O_D=      0.0086467 O_OD=      0.2605024 O_TOT=      8.7404848 <-- SPRD
 Delta: O_D=  0.1792659E-05 O_OD= -0.2333134E-04 O_TOT= -0.2153868E-04 <-- DLTA
 ------------------------------------------------------------------------------
 Cycle:     70
  WF centre and spread    1  (  1.515525, -1.574207, -1.207360 )     2.90556428
  WF centre and spread    2  (  1.480441, -1.216984, -1.582614 )     2.91370191
  WF centre and spread    3  (  1.111398, -1.312915, -1.313582 )     2.92119030
  Sum of centres and spreads (  4.107365, -4.104106, -4.103556 )     8.74045648
 
     70    -0.269E-04     0.0024662170        8.7404578519       0.49  <-- CONV
        O_D=      0.0086486 O_OD=      0.2604736 O_TOT=      8.7404579 <-- SPRD
 Delta: O_D=  0.1847626E-05 O_OD= -0.2877247E-04 O_TOT= -0.2692484E-04 <-- DLTA
 ------------------------------------------------------------------------------
 Cycle:     71
  WF centre and spread    1  (  1.515272, -1.574323, -1.207396 )     2.90560361
  WF centre and spread    2  (  1.480671, -1.216997, -1.582695 )     2.91362446
  WF centre and spread    3  (  1.111423, -1.312779, -1.313465 )     2.92119515
  Sum of centres and spreads (  4.107366, -4.104099, -4.103556 )     8.74042322
 
     71    -0.333E-04     0.0027256623        8.7404245828       0.50  <-- CONV
        O_D=      0.0086524 O_OD=      0.2604365 O_TOT=      8.7404246 <-- SPRD
 Delta: O_D=  0.3832197E-05 O_OD= -0.3710131E-04 O_TOT= -0.3326911E-04 <-- DLTA
 ------------------------------------------------------------------------------
 Cycle:     72
  WF centre and spread    1  (  1.514945, -1.574469, -1.207447 )     2.90566231
  WF centre and spread    2  (  1.480963, -1.217016, -1.582794 )     2.91353248
  WF centre and spread    3  (  1.111458, -1.312606, -1.313316 )     2.92118983
  Sum of centres and spreads (  4.107366, -4.104091, -4.103557 )     8.74038462
 
     72    -0.386E-04     0.0031252925        8.7403859874       0.51  <-- CONV
        O_D=      0.0086627 O_OD=      0.2603876 O_TOT=      8.7403860 <-- SPRD
 Delta: O_D=  0.1028876E-04 O_OD= -0.4888415E-04 O_TOT= -0.3859539E-04 <-- DLTA
 ------------------------------------------------------------------------------
 Cycle:     73
  WF centre and spread    1  (  1.514929, -1.574475, -1.207451 )     2.90565685
  WF centre and spread    2  (  1.480976, -1.217018, -1.582798 )     2.91351876
  WF centre and spread    3  (  1.111461, -1.312599, -1.313309 )     2.92117202
  Sum of centres and spreads (  4.107366, -4.104091, -4.103558 )     8.74034763
 
     73    -0.370E-04     0.0043100949        8.7403489997       0.51  <-- CONV
        O_D=      0.0086496 O_OD=      0.2603638 O_TOT=      8.7403490 <-- SPRD
 Delta: O_D= -0.1314755E-04 O_OD= -0.2384021E-04 O_TOT= -0.3698775E-04 <-- DLTA
 ------------------------------------------------------------------------------
 Cycle:     74
  WF centre and spread    1  (  1.514887, -1.574490, -1.207461 )     2.90566192
  WF centre and spread    2  (  1.481009, -1.217023, -1.582807 )     2.91350456
  WF centre and spread    3  (  1.111469, -1.312579, -1.313292 )     2.92114994
  Sum of centres and spreads (  4.107365, -4.104092, -4.103560 )     8.74031642
 
     74    -0.312E-04     0.0030433607        8.7403177845       0.52  <-- CONV
        O_D=      0.0086432 O_OD=      0.2603390 O_TOT=      8.7403178 <-- SPRD
 Delta: O_D= -0.6398516E-05 O_OD= -0.2481671E-04 O_TOT= -0.3121522E-04 <-- DLTA
 ------------------------------------------------------------------------------
 Cycle:     75
  WF centre and spread    1  (  1.514825, -1.574514, -1.207475 )     2.90567624
  WF centre and spread    2  (  1.481060, -1.217029, -1.582822 )     2.91348894
  WF centre and spread    3  (  1.111479, -1.312549, -1.313264 )     2.92112632
  Sum of centres and spreads (  4.107363, -4.104092, -4.103561 )     8.74029151
 
     75    -0.249E-04     0.0026285911        8.7402928749       0.53  <-- CONV
        O_D=      0.0086393 O_OD=      0.2603179 O_TOT=      8.7402929 <-- SPRD
 Delta: O_D= -0.3863738E-05 O_OD= -0.2104585E-04 O_TOT= -0.2490958E-04 <-- DLTA
 ------------------------------------------------------------------------------
 Cycle:     76
  WF centre and spread    1  (  1.514749, -1.574544, -1.207491 )     2.90569495
  WF centre and spread    2  (  1.481124, -1.217035, -1.582841 )     2.91347102
  WF centre and spread    3  (  1.111490, -1.312510, -1.313229 )     2.92110605
  Sum of centres and spreads (  4.107363, -4.104090, -4.103562 )     8.74027202
 
     76    -0.195E-04     0.0023574775        8.7402733860       0.53  <-- CONV
        O_D=      0.0086360 O_OD=      0.2603017 O_TOT=      8.7402734 <-- SPRD
 Delta: O_D= -0.3262233E-05 O_OD= -0.1622667E-04 O_TOT= -0.1948890E-04 <-- DLTA
 ------------------------------------------------------------------------------
 Cycle:     77
  WF centre and spread    1  (  1.514669, -1.574580, -1.207507 )     2.90571244
  WF centre and spread    2  (  1.481194, -1.217041, -1.582864 )     2.91345075
  WF centre and spread    3  (  1.111500, -1.312467, -1.313191 )     2.92109494
  Sum of centres and spreads (  4.107363, -4.104088, -4.103562 )     8.74025813
 
     77    -0.139E-04     0.0019932751        8.7402595011       0.54  <-- CONV
        O_D=      0.0086351 O_OD=      0.2602888 O_TOT=      8.7402595 <-- SPRD
 Delta: O_D= -0.9801482E-06 O_OD= -0.1290478E-04 O_TOT= -0.1388493E-04 <-- DLTA
 ------------------------------------------------------------------------------
 Cycle:     78
  WF centre and spread    1  (  1.514565, -1.574628, -1.207526 )     2.90573083
  WF centre and spread    2  (  1.481287, -1.217048, -1.582896 )     2.91342197
  WF centre and spread    3  (  1.111511, -1.312409, -1.313140 )     2.92109245
  Sum of centres and spreads (  4.107363, -4.104085, -4.103562 )     8.74024524
 
     78    -0.129E-04     0.0018008474        8.7402466122       0.55  <-- CONV
        O_D=      0.0086380 O_OD=      0.2602730 O_TOT=      8.7402466 <-- SPRD
 Delta: O_D=  0.2927749E-05 O_OD= -0.1581663E-04 O_TOT= -0.1288889E-04 <-- DLTA
 ------------------------------------------------------------------------------
 Cycle:     79
  WF centre and spread    1  (  1.514550, -1.574635, -1.207528 )     2.90572773
  WF centre and spread    2  (  1.481301, -1.217049, -1.582901 )     2.91341281
  WF centre and spread    3  (  1.111513, -1.312401, -1.313133 )     2.92109223
  Sum of centres and spreads (  4.107363, -4.104085, -4.103562 )     8.74023277
 
     79    -0.125E-04     0.0025258313        8.7402341415       0.56  <-- CONV
        O_D=      0.0086341 O_OD=      0.2602644 O_TOT=      8.7402341 <-- SPRD
 Delta: O_D= -0.3905955E-05 O_OD= -0.8564723E-05 O_TOT= -0.1247068E-04 <-- DLTA
 ------------------------------------------------------------------------------
 Cycle:     80
  WF centre and spread    1  (  1.514503, -1.574659, -1.207536 )     2.90572744
  WF centre and spread    2  (  1.481345, -1.217052, -1.582918 )     2.91339270
  WF centre and spread    3  (  1.111516, -1.312373, -1.313109 )     2.92109930
  Sum of centres and spreads (  4.107364, -4.104084, -4.103563 )     8.74021944
 
     80    -0.133E-04     0.0017686885        8.7402208092       0.56  <-- CONV
        O_D=      0.0086339 O_OD=      0.2602513 O_TOT=      8.7402208 <-- SPRD
 Delta: O_D= -0.2263787E-06 O_OD= -0.1310593E-04 O_TOT= -0.1333231E-04 <-- DLTA
 ------------------------------------------------------------------------------
 Cycle:     81
  WF centre and spread    1  (  1.514400, -1.574710, -1.207554 )     2.90573432
  WF centre and spread    2  (  1.481439, -1.217059, -1.582952 )     2.91335504
  WF centre and spread    3  (  1.111525, -1.312313, -1.313057 )     2.92111149
  Sum of centres and spreads (  4.107364, -4.104082, -4.103563 )     8.74020085
 
     81    -0.186E-04     0.0019504666        8.7402022197       0.57  <-- CONV
        O_D=      0.0086356 O_OD=      0.2602310 O_TOT=      8.7402022 <-- SPRD
 Delta: O_D=  0.1729390E-05 O_OD= -0.2031883E-04 O_TOT= -0.1858944E-04 <-- DLTA
 ------------------------------------------------------------------------------
 Cycle:     82
  WF centre and spread    1  (  1.514237, -1.574789, -1.207583 )     2.90575409
  WF centre and spread    2  (  1.481587, -1.217069, -1.583005 )     2.91330201
  WF centre and spread    3  (  1.111541, -1.312219, -1.312975 )     2.92112151
  Sum of centres and spreads (  4.107365, -4.104077, -4.103563 )     8.74017761
 
     82    -0.232E-04     0.0022873111        8.7401789744       0.58  <-- CONV
        O_D=      0.0086375 O_OD=      0.2602059 O_TOT=      8.7401790 <-- SPRD
 Delta: O_D=  0.1874188E-05 O_OD= -0.2511957E-04 O_TOT= -0.2324538E-04 <-- DLTA
 ------------------------------------------------------------------------------
 Cycle:     83
  WF centre and spread    1  (  1.514001, -1.574899, -1.207629 )     2.90579269
  WF centre and spread    2  (  1.481798, -1.217087, -1.583077 )     2.91323258
  WF centre and spread    3  (  1.111566, -1.312085, -1.312857 )     2.92112359
  Sum of centres and spreads (  4.107366, -4.104071, -4.103563 )     8.74014886
 
     83    -0.288E-04     0.0025374273        8.7401502234       0.58  <-- CONV
        O_D=      0.0086411 O_OD=      0.2601735 O_TOT=      8.7401502 <-- SPRD
 Delta: O_D=  0.3638378E-05 O_OD= -0.3238932E-04 O_TOT= -0.2875095E-04 <-- DLTA
 ------------------------------------------------------------------------------
 Cycle:     84
  WF centre and spread    1  (  1.513700, -1.575037, -1.207691 )     2.90584870
  WF centre and spread    2  (  1.482065, -1.217110, -1.583165 )     2.91315084
  WF centre and spread    3  (  1.111601, -1.311917, -1.312709 )     2.92111637
  Sum of centres and spreads (  4.107366, -4.104064, -4.103564 )     8.74011590
 
     84    -0.330E-04     0.0028957204        8.7401172705       0.59  <-- CONV
        O_D=      0.0086503 O_OD=      0.2601314 O_TOT=      8.7401173 <-- SPRD
 Delta: O_D=  0.9160387E-05 O_OD= -0.4211334E-04 O_TOT= -0.3295295E-04 <-- DLTA
 ------------------------------------------------------------------------------
 Cycle:     85
  WF centre and spread    1  (  1.513685, -1.575042, -1.207695 )     2.90584421
  WF centre and spread    2  (  1.482077, -1.217112, -1.583168 )     2.91313886
  WF centre and spread    3  (  1.111604, -1.311909, -1.312702 )     2.92110112
  Sum of centres and spreads (  4.107366, -4.104064, -4.103565 )     8.74008420
 
     85    -0.317E-04     0.0039873827        8.7400855627       0.60  <-- CONV
        O_D=      0.0086386 O_OD=      0.2601113 O_TOT=      8.7400856 <-- SPRD
 Delta: O_D= -0.1163455E-04 O_OD= -0.2007318E-04 O_TOT= -0.3170773E-04 <-- DLTA
 ------------------------------------------------------------------------------
 Cycle:     86
  WF centre and spread    1  (  1.513646, -1.575058, -1.207706 )     2.90584919
  WF centre and spread    2  (  1.482107, -1.217117, -1.583176 )     2.91312604
  WF centre and spread    3  (  1.111611, -1.311890, -1.312684 )     2.92108192
  Sum of centres and spreads (  4.107365, -4.104064, -4.103566 )     8.74005715
 
     86    -0.270E-04     0.0028241949        8.7400585145       0.60  <-- CONV
        O_D=      0.0086327 O_OD=      0.2600901 O_TOT=      8.7400585 <-- SPRD
 Delta: O_D= -0.5894946E-05 O_OD= -0.2115329E-04 O_TOT= -0.2704823E-04 <-- DLTA
 ------------------------------------------------------------------------------
 Cycle:     87
  WF centre and spread    1  (  1.513588, -1.575081, -1.207722 )     2.90586247
  WF centre and spread    2  (  1.482154, -1.217124, -1.583190 )     2.91311191
  WF centre and spread    3  (  1.111621, -1.311860, -1.312656 )     2.92106125
  Sum of centres and spreads (  4.107364, -4.104064, -4.103568 )     8.74003563
 
     87    -0.215E-04     0.0024484755        8.7400369996       0.61  <-- CONV
        O_D=      0.0086291 O_OD=      0.2600722 O_TOT=      8.7400370 <-- SPRD
 Delta: O_D= -0.3579006E-05 O_OD= -0.1793587E-04 O_TOT= -0.2151488E-04 <-- DLTA
 ------------------------------------------------------------------------------
 Cycle:     88
  WF centre and spread    1  (  1.513518, -1.575111, -1.207740 )     2.90587989
  WF centre and spread    2  (  1.482213, -1.217131, -1.583207 )     2.91309571
  WF centre and spread    3  (  1.111632, -1.311821, -1.312621 )     2.92104319
  Sum of centres and spreads (  4.107363, -4.104062, -4.103568 )     8.74001879
 
     88    -0.168E-04     0.0021894704        8.7400201620       0.62  <-- CONV
        O_D=      0.0086262 O_OD=      0.2600583 O_TOT=      8.7400202 <-- SPRD
 Delta: O_D= -0.2974904E-05 O_OD= -0.1386275E-04 O_TOT= -0.1683765E-04 <-- DLTA
 ------------------------------------------------------------------------------
 Cycle:     89
  WF centre and spread    1  (  1.513444, -1.575144, -1.207758 )     2.90589639
  WF centre and spread    2  (  1.482278, -1.217138, -1.583228 )     2.91307744
  WF centre and spread    3  (  1.111641, -1.311778, -1.312582 )     2.92103293
  Sum of centres and spreads (  4.107363, -4.104060, -4.103568 )     8.74000677
 
     89    -0.120E-04     0.0018570146        8.7400081359       0.63  <-- CONV
        O_D=      0.0086253 O_OD=      0.2600472 O_TOT=      8.7400081 <-- SPRD
 Delta: O_D= -0.8891411E-06 O_OD= -0.1113689E-04 O_TOT= -0.1202603E-04 <-- DLTA
 ------------------------------------------------------------------------------
 Cycle:     90
  WF centre and spread    1  (  1.513348, -1.575190, -1.207780 )     2.90591382
  WF centre and spread    2  (  1.482363, -1.217146, -1.583256 )     2.91305177
  WF centre and spread    3  (  1.111653, -1.311722, -1.312532 )     2.92103014
  Sum of centres and spreads (  4.107363, -4.104057, -4.103568 )     8.73999573
 
     90    -0.110E-04     0.0016697191        8.7399971000       0.63  <-- CONV
        O_D=      0.0086279 O_OD=      0.2600336 O_TOT=      8.7399971 <-- SPRD
 Delta: O_D=  0.2587360E-05 O_OD= -0.1362332E-04 O_TOT= -0.1103596E-04 <-- DLTA
 ------------------------------------------------------------------------------
 Cycle:     91
  WF centre and spread    1  (  1.513334, -1.575197, -1.207783 )     2.90591135
  WF centre and spread    2  (  1.482375, -1.217147, -1.583261 )     2.91304370
  WF centre and spread    3  (  1.111654, -1.311713, -1.312524 )     2.92102996
  Sum of centres and spreads (  4.107363, -4.104057, -4.103568 )     8.73998501
 
     91    -0.107E-04     0.0023404678        8.7399863804       0.64  <-- CONV
        O_D=      0.0086245 O_OD=      0.2600263 O_TOT=      8.7399864 <-- SPRD
 Delta: O_D= -0.3419669E-05 O_OD= -0.7299960E-05 O_TOT= -0.1071963E-04 <-- DLTA
 ------------------------------------------------------------------------------
 Cycle:     92
  WF centre and spread    1  (  1.513289, -1.575220, -1.207793 )     2.90591179
  WF centre and spread    2  (  1.482416, -1.217151, -1.583275 )     2.91302565
  WF centre and spread    3  (  1.111658, -1.311686, -1.312500 )     2.92103598
  Sum of centres and spreads (  4.107364, -4.104057, -4.103569 )     8.73997342
 
     92    -0.116E-04     0.0016428194        8.7399747906       0.65  <-- CONV
        O_D=      0.0086243 O_OD=      0.2600148 O_TOT=      8.7399748 <-- SPRD
 Delta: O_D= -0.1627007E-06 O_OD= -0.1142705E-04 O_TOT= -0.1158975E-04 <-- DLTA
 ------------------------------------------------------------------------------
 Cycle:     93
  WF centre and spread    1  (  1.513193, -1.575268, -1.207815 )     2.90591939
  WF centre and spread    2  (  1.482503, -1.217159, -1.583306 )     2.91299204
  WF centre and spread    3  (  1.111668, -1.311627, -1.312448 )     2.92104590
  Sum of centres and spreads (  4.107364, -4.104055, -4.103569 )     8.73995733
 
     93    -0.161E-04     0.0018198287        8.7399586956       0.65  <-- CONV
        O_D=      0.0086260 O_OD=      0.2599971 O_TOT=      8.7399587 <-- SPRD
 Delta: O_D=  0.1664689E-05 O_OD= -0.1775970E-04 O_TOT= -0.1609501E-04 <-- DLTA
 ------------------------------------------------------------------------------
 Cycle:     94
  WF centre and spread    1  (  1.513042, -1.575343, -1.207850 )     2.90593930
  WF centre and spread    2  (  1.482639, -1.217172, -1.583353 )     2.91294471
  WF centre and spread    3  (  1.111684, -1.311535, -1.312366 )     2.92105321
  Sum of centres and spreads (  4.107365, -4.104050, -4.103569 )     8.73993722
 
     94    -0.201E-04     0.0021270286        8.7399385871       0.66  <-- CONV
        O_D=      0.0086278 O_OD=      0.2599751 O_TOT=      8.7399386 <-- SPRD
 Delta: O_D=  0.1848263E-05 O_OD= -0.2195680E-04 O_TOT= -0.2010853E-04 <-- DLTA
 ------------------------------------------------------------------------------
 Cycle:     95
  WF centre and spread    1  (  1.512822, -1.575448, -1.207904 )     2.90597688
  WF centre and spread    2  (  1.482833, -1.217193, -1.583417 )     2.91288246
  WF centre and spread    3  (  1.111710, -1.311403, -1.312248 )     2.92105295
  Sum of centres and spreads (  4.107365, -4.104044, -4.103569 )     8.73991229
 
     95    -0.249E-04     0.0023635418        8.7399136558       0.67  <-- CONV
        O_D=      0.0086312 O_OD=      0.2599468 O_TOT=      8.7399137 <-- SPRD
 Delta: O_D=  0.3431435E-05 O_OD= -0.2836270E-04 O_TOT= -0.2493127E-04 <-- DLTA
 ------------------------------------------------------------------------------
 Cycle:     96
  WF centre and spread    1  (  1.512544, -1.575579, -1.207975 )     2.90603018
  WF centre and spread    2  (  1.483076, -1.217220, -1.583496 )     2.91280951
  WF centre and spread    3  (  1.111745, -1.311238, -1.312100 )     2.92104428
  Sum of centres and spreads (  4.107365, -4.104037, -4.103570 )     8.73988397
 
     96    -0.283E-04     0.0026894654        8.7398853369       0.67  <-- CONV
        O_D=      0.0086394 O_OD=      0.2599102 O_TOT=      8.7398853 <-- SPRD
 Delta: O_D=  0.8204347E-05 O_OD= -0.3652325E-04 O_TOT= -0.2831890E-04 <-- DLTA
 ------------------------------------------------------------------------------
 Cycle:     97
  WF centre and spread    1  (  1.512530, -1.575585, -1.207979 )     2.90602645
  WF centre and spread    2  (  1.483088, -1.217222, -1.583499 )     2.91279898
  WF centre and spread    3  (  1.111747, -1.311230, -1.312093 )     2.92103120
  Sum of centres and spreads (  4.107365, -4.104038, -4.103571 )     8.73985663
 
[...]
  Sum of centres and spreads (  4.107181, -4.103546, -4.103468 )     8.73770589
 
    473    -0.185E-05     0.0007214763        8.7377072608       3.34  <-- CONV
        O_D=      0.0085368 O_OD=      0.2578348 O_TOT=      8.7377073 <-- SPRD
 Delta: O_D= -0.3604682E-06 O_OD= -0.1484847E-05 O_TOT= -0.1845315E-05 <-- DLTA
 ------------------------------------------------------------------------------
 Cycle:    474
  WF centre and spread    1  (  1.497387, -1.587177, -1.221587 )     2.90903335
  WF centre and spread    2  (  1.493027, -1.224515, -1.589352 )     2.90994667
  WF centre and spread    3  (  1.116767, -1.291853, -1.292528 )     2.91872425
  Sum of centres and spreads (  4.107181, -4.103545, -4.103468 )     8.73770427
 
    474    -0.162E-05     0.0006439671        8.7377056375       3.35  <-- CONV
        O_D=      0.0085373 O_OD=      0.2578327 O_TOT=      8.7377056 <-- SPRD
 Delta: O_D=  0.5004361E-06 O_OD= -0.2123702E-05 O_TOT= -0.1623266E-05 <-- DLTA
 ------------------------------------------------------------------------------
 Cycle:    475
  WF centre and spread    1  (  1.497384, -1.587181, -1.221592 )     2.90903337
  WF centre and spread    2  (  1.493027, -1.224518, -1.589355 )     2.90994606
  WF centre and spread    3  (  1.116769, -1.291846, -1.292521 )     2.91872322
  Sum of centres and spreads (  4.107180, -4.103545, -4.103468 )     8.73770265
 
    475    -0.162E-05     0.0009089588        8.7377040222       3.35  <-- CONV
        O_D=      0.0085367 O_OD=      0.2578317 O_TOT=      8.7377040 <-- SPRD
 Delta: O_D= -0.6257077E-06 O_OD= -0.9896488E-06 O_TOT= -0.1615356E-05 <-- DLTA
 ------------------------------------------------------------------------------
 Cycle:    476
  WF centre and spread    1  (  1.497376, -1.587192, -1.221609 )     2.90903476
  WF centre and spread    2  (  1.493028, -1.224531, -1.589362 )     2.90994533
  WF centre and spread    3  (  1.116777, -1.291822, -1.292496 )     2.91872073
  Sum of centres and spreads (  4.107180, -4.103545, -4.103467 )     8.73770082
 
    476    -0.184E-05     0.0006419216        8.7377021826       3.36  <-- CONV
        O_D=      0.0085369 O_OD=      0.2578297 O_TOT=      8.7377022 <-- SPRD
 Delta: O_D=  0.1930277E-06 O_OD= -0.2032569E-05 O_TOT= -0.1839541E-05 <-- DLTA
 ------------------------------------------------------------------------------
 Cycle:    477
  WF centre and spread    1  (  1.497359, -1.587215, -1.221644 )     2.90903826
  WF centre and spread    2  (  1.493029, -1.224555, -1.589377 )     2.90994469
  WF centre and spread    3  (  1.116791, -1.291774, -1.292447 )     2.91871547
  Sum of centres and spreads (  4.107179, -4.103544, -4.103467 )     8.73769842
 
    477    -0.239E-05     0.0007202262        8.7376997900       3.37  <-- CONV
        O_D=      0.0085376 O_OD=      0.2578266 O_TOT=      8.7376998 <-- SPRD
 Delta: O_D=  0.6884169E-06 O_OD= -0.3081105E-05 O_TOT= -0.2392689E-05 <-- DLTA
 ------------------------------------------------------------------------------
 Cycle:    478
  WF centre and spread    1  (  1.497333, -1.587251, -1.221698 )     2.90904453
  WF centre and spread    2  (  1.493031, -1.224594, -1.589400 )     2.90994451
  WF centre and spread    3  (  1.116814, -1.291698, -1.292368 )     2.91870640
  Sum of centres and spreads (  4.107179, -4.103543, -4.103466 )     8.73769545
 
    478    -0.298E-05     0.0008193194        8.7376968129       3.37  <-- CONV
        O_D=      0.0085384 O_OD=      0.2578228 O_TOT=      8.7376968 <-- SPRD
 Delta: O_D=  0.8294973E-06 O_OD= -0.3806525E-05 O_TOT= -0.2977027E-05 <-- DLTA
 ------------------------------------------------------------------------------
 Cycle:    479
  WF centre and spread    1  (  1.497293, -1.587305, -1.221780 )     2.90905467
  WF centre and spread    2  (  1.493034, -1.224652, -1.589435 )     2.90994493
  WF centre and spread    3  (  1.116850, -1.291583, -1.292249 )     2.91869195
  Sum of centres and spreads (  4.107177, -4.103540, -4.103464 )     8.73769156
 
    479    -0.389E-05     0.0009263815        8.7376929270       3.38  <-- CONV
        O_D=      0.0085396 O_OD=      0.2578177 O_TOT=      8.7376929 <-- SPRD
 Delta: O_D=  0.1213659E-05 O_OD= -0.5099573E-05 O_TOT= -0.3885914E-05 <-- DLTA
 ------------------------------------------------------------------------------
 Cycle:    480
  WF centre and spread    1  (  1.497243, -1.587373, -1.221884 )     2.90906760
  WF centre and spread    2  (  1.493038, -1.224726, -1.589479 )     2.90994582
  WF centre and spread    3  (  1.116894, -1.291439, -1.292099 )     2.91867375
  Sum of centres and spreads (  4.107175, -4.103537, -4.103462 )     8.73768717
 
    480    -0.439E-05     0.0010543634        8.7376885388       3.39  <-- CONV
        O_D=      0.0085418 O_OD=      0.2578111 O_TOT=      8.7376885 <-- SPRD
 Delta: O_D=  0.2167897E-05 O_OD= -0.6556078E-05 O_TOT= -0.4388181E-05 <-- DLTA
 ------------------------------------------------------------------------------
 Cycle:    481
  WF centre and spread    1  (  1.497240, -1.587376, -1.221889 )     2.90906683
  WF centre and spread    2  (  1.493038, -1.224730, -1.589481 )     2.90994451
  WF centre and spread    3  (  1.116896, -1.291432, -1.292092 )     2.91867145
  Sum of centres and spreads (  4.107175, -4.103537, -4.103463 )     8.73768279
 
    481    -0.438E-05     0.0014852978        8.7376841569       3.40  <-- CONV
        O_D=      0.0085394 O_OD=      0.2578091 O_TOT=      8.7376842 <-- SPRD
 Delta: O_D= -0.2404991E-05 O_OD= -0.1976910E-05 O_TOT= -0.4381901E-05 <-- DLTA
 ------------------------------------------------------------------------------
 Cycle:    482
  WF centre and spread    1  (  1.497234, -1.587385, -1.221903 )     2.90906735
  WF centre and spread    2  (  1.493039, -1.224740, -1.589487 )     2.90994370
  WF centre and spread    3  (  1.116902, -1.291413, -1.292073 )     2.91866787
  Sum of centres and spreads (  4.107175, -4.103537, -4.103463 )     8.73767892
 
    482    -0.387E-05     0.0010521613        8.7376802905       3.40  <-- CONV
        O_D=      0.0085379 O_OD=      0.2578068 O_TOT=      8.7376803 <-- SPRD
 Delta: O_D= -0.1505126E-05 O_OD= -0.2361329E-05 O_TOT= -0.3866455E-05 <-- DLTA
 ------------------------------------------------------------------------------
 Cycle:    483
  WF centre and spread    1  (  1.497224, -1.587397, -1.221922 )     2.90906916
  WF centre and spread    2  (  1.493039, -1.224753, -1.589495 )     2.90994355
  WF centre and spread    3  (  1.116911, -1.291386, -1.292045 )     2.91866326
  Sum of centres and spreads (  4.107174, -4.103537, -4.103462 )     8.73767596
 
    483    -0.296E-05     0.0009220559        8.7376773325       3.41  <-- CONV
        O_D=      0.0085368 O_OD=      0.2578049 O_TOT=      8.7376773 <-- SPRD
 Delta: O_D= -0.1085350E-05 O_OD= -0.1872665E-05 O_TOT= -0.2958015E-05 <-- DLTA
 ------------------------------------------------------------------------------
 Cycle:    484
  WF centre and spread    1  (  1.497213, -1.587413, -1.221947 )     2.90907209
  WF centre and spread    2  (  1.493040, -1.224771, -1.589506 )     2.90994394
  WF centre and spread    3  (  1.116922, -1.291352, -1.292009 )     2.91865756
  Sum of centres and spreads (  4.107174, -4.103536, -4.103462 )     8.73767359
 
    484    -0.238E-05     0.0008145021        8.7376749535       3.42  <-- CONV
        O_D=      0.0085359 O_OD=      0.2578034 O_TOT=      8.7376750 <-- SPRD
 Delta: O_D= -0.9004006E-06 O_OD= -0.1478567E-05 O_TOT= -0.2378968E-05 <-- DLTA
 ------------------------------------------------------------------------------
 Cycle:    485
  WF centre and spread    1  (  1.497199, -1.587431, -1.221975 )     2.90907563
  WF centre and spread    2  (  1.493040, -1.224791, -1.589517 )     2.90994451
  WF centre and spread    3  (  1.116934, -1.291313, -1.291969 )     2.91865162
  Sum of centres and spreads (  4.107174, -4.103535, -4.103461 )     8.73767176
 
    485    -0.183E-05     0.0007179366        8.7376731255       3.42  <-- CONV
        O_D=      0.0085355 O_OD=      0.2578020 O_TOT=      8.7376731 <-- SPRD
 Delta: O_D= -0.3642923E-06 O_OD= -0.1463675E-05 O_TOT= -0.1827967E-05 <-- DLTA
 ------------------------------------------------------------------------------
 Cycle:    486
  WF centre and spread    1  (  1.497183, -1.587454, -1.222010 )     2.90907994
  WF centre and spread    2  (  1.493041, -1.224816, -1.589532 )     2.90994503
  WF centre and spread    3  (  1.116949, -1.291264, -1.291919 )     2.91864519
  Sum of centres and spreads (  4.107173, -4.103534, -4.103461 )     8.73767016
 
    486    -0.160E-05     0.0006387168        8.7376715258       3.43  <-- CONV
        O_D=      0.0085360 O_OD=      0.2577999 O_TOT=      8.7376715 <-- SPRD
 Delta: O_D=  0.4984893E-06 O_OD= -0.2098226E-05 O_TOT= -0.1599737E-05 <-- DLTA
 ------------------------------------------------------------------------------
 Cycle:    487
  WF centre and spread    1  (  1.497180, -1.587457, -1.222015 )     2.90907996
  WF centre and spread    2  (  1.493041, -1.224820, -1.589534 )     2.90994446
  WF centre and spread    3  (  1.116951, -1.291257, -1.291911 )     2.91864415
  Sum of centres and spreads (  4.107173, -4.103534, -4.103461 )     8.73766856
 
    487    -0.160E-05     0.0009045731        8.7376699302       3.44  <-- CONV
        O_D=      0.0085354 O_OD=      0.2577989 O_TOT=      8.7376699 <-- SPRD
 Delta: O_D= -0.6206958E-06 O_OD= -0.9748626E-06 O_TOT= -0.1595558E-05 <-- DLTA
 ------------------------------------------------------------------------------
 Cycle:    488
  WF centre and spread    1  (  1.497172, -1.587469, -1.222032 )     2.90908131
  WF centre and spread    2  (  1.493042, -1.224832, -1.589542 )     2.90994382
  WF centre and spread    3  (  1.116958, -1.291234, -1.291887 )     2.91864162
  Sum of centres and spreads (  4.107172, -4.103534, -4.103461 )     8.73766674
 
    488    -0.182E-05     0.0006370556        8.7376681122       3.44  <-- CONV
        O_D=      0.0085356 O_OD=      0.2577969 O_TOT=      8.7376681 <-- SPRD
 Delta: O_D=  0.1949552E-06 O_OD= -0.2012966E-05 O_TOT= -0.1818011E-05 <-- DLTA
 ------------------------------------------------------------------------------
 Cycle:    489
  WF centre and spread    1  (  1.497156, -1.587491, -1.222066 )     2.90908472
  WF centre and spread    2  (  1.493043, -1.224857, -1.589557 )     2.90994333
  WF centre and spread    3  (  1.116973, -1.291186, -1.291837 )     2.91863633
  Sum of centres and spreads (  4.107172, -4.103534, -4.103460 )     8.73766438
 
    489    -0.237E-05     0.0007166319        8.7376657462       3.45  <-- CONV
        O_D=      0.0085363 O_OD=      0.2577938 O_TOT=      8.7376657 <-- SPRD
 Delta: O_D=  0.6739585E-06 O_OD= -0.3039991E-05 O_TOT= -0.2366033E-05 <-- DLTA
 ------------------------------------------------------------------------------
 Cycle:    490
  WF centre and spread    1  (  1.497131, -1.587526, -1.222120 )     2.90909082
  WF centre and spread    2  (  1.493044, -1.224895, -1.589580 )     2.90994338
  WF centre and spread    3  (  1.116996, -1.291110, -1.291759 )     2.91862723
  Sum of centres and spreads (  4.107171, -4.103532, -4.103459 )     8.73766144
 
    490    -0.294E-05     0.0008110159        8.7376628059       3.46  <-- CONV
        O_D=      0.0085371 O_OD=      0.2577901 O_TOT=      8.7376628 <-- SPRD
 Delta: O_D=  0.8251023E-06 O_OD= -0.3765370E-05 O_TOT= -0.2940268E-05 <-- DLTA
 ------------------------------------------------------------------------------
 Cycle:    491
  WF centre and spread    1  (  1.497092, -1.587580, -1.222202 )     2.90910072
  WF centre and spread    2  (  1.493046, -1.224954, -1.589615 )     2.90994414
  WF centre and spread    3  (  1.117032, -1.290996, -1.291640 )     2.91861274
  Sum of centres and spreads (  4.107169, -4.103530, -4.103457 )     8.73765759
 
    491    -0.384E-05     0.0009211184        8.7376589621       3.47  <-- CONV
        O_D=      0.0085383 O_OD=      0.2577850 O_TOT=      8.7376590 <-- SPRD
 Delta: O_D=  0.1205821E-05 O_OD= -0.5049604E-05 O_TOT= -0.3843783E-05 <-- DLTA
 ------------------------------------------------------------------------------
 Cycle:    492
  WF centre and spread    1  (  1.497043, -1.587646, -1.222305 )     2.90911332
  WF centre and spread    2  (  1.493048, -1.225028, -1.589659 )     2.90994544
  WF centre and spread    3  (  1.117077, -1.290852, -1.291492 )     2.91859449
  Sum of centres and spreads (  4.107168, -4.103527, -4.103456 )     8.73765325
 
    492    -0.434E-05     0.0010472812        8.7376546175       3.47  <-- CONV
        O_D=      0.0085404 O_OD=      0.2577785 O_TOT=      8.7376546 <-- SPRD
 Delta: O_D=  0.2147705E-05 O_OD= -0.6492355E-05 O_TOT= -0.4344650E-05 <-- DLTA
 ------------------------------------------------------------------------------
 Cycle:    493
  WF centre and spread    1  (  1.497041, -1.587650, -1.222310 )     2.90911256
  WF centre and spread    2  (  1.493048, -1.225032, -1.589661 )     2.90994417
  WF centre and spread    3  (  1.117079, -1.290845, -1.291484 )     2.91859220
  Sum of centres and spreads (  4.107167, -4.103527, -4.103456 )     8.73764893
 
    493    -0.432E-05     0.0014756134        8.7376502958       3.48  <-- CONV
        O_D=      0.0085381 O_OD=      0.2577766 O_TOT=      8.7376503 <-- SPRD
 Delta: O_D= -0.2379460E-05 O_OD= -0.1942238E-05 O_TOT= -0.4321698E-05 <-- DLTA
 ------------------------------------------------------------------------------
 Cycle:    494
  WF centre and spread    1  (  1.497035, -1.587658, -1.222324 )     2.90911306
  WF centre and spread    2  (  1.493048, -1.225042, -1.589667 )     2.90994342
  WF centre and spread    3  (  1.117085, -1.290827, -1.291465 )     2.91858862
  Sum of centres and spreads (  4.107167, -4.103527, -4.103456 )     8.73764511
 
    494    -0.382E-05     0.0010446985        8.7376464756       3.49  <-- CONV
        O_D=      0.0085366 O_OD=      0.2577742 O_TOT=      8.7376465 <-- SPRD
 Delta: O_D= -0.1487103E-05 O_OD= -0.2333105E-05 O_TOT= -0.3820207E-05 <-- DLTA
 ------------------------------------------------------------------------------
 Cycle:    495
  WF centre and spread    1  (  1.497025, -1.587671, -1.222343 )     2.90911482
  WF centre and spread    2  (  1.493048, -1.225056, -1.589675 )     2.90994336
  WF centre and spread    3  (  1.117093, -1.290800, -1.291438 )     2.91858400
  Sum of centres and spreads (  4.107167, -4.103527, -4.103456 )     8.73764219
 
    495    -0.292E-05     0.0009181379        8.7376435535       3.49  <-- CONV
        O_D=      0.0085355 O_OD=      0.2577724 O_TOT=      8.7376436 <-- SPRD
 Delta: O_D= -0.1077564E-05 O_OD= -0.1844489E-05 O_TOT= -0.2922052E-05 <-- DLTA
 ------------------------------------------------------------------------------
 Cycle:    496
  WF centre and spread    1  (  1.497014, -1.587686, -1.222367 )     2.90911766
  WF centre and spread    2  (  1.493048, -1.225074, -1.589686 )     2.90994384
  WF centre and spread    3  (  1.117104, -1.290766, -1.291402 )     2.91857833
  Sum of centres and spreads (  4.107166, -4.103526, -4.103455 )     8.73763984
 
    496    -0.235E-05     0.0008102417        8.7376412039       3.50  <-- CONV
        O_D=      0.0085346 O_OD=      0.2577709 O_TOT=      8.7376412 <-- SPRD
 Delta: O_D= -0.8946707E-06 O_OD= -0.1454956E-05 O_TOT= -0.2349627E-05 <-- DLTA
 ------------------------------------------------------------------------------
 Cycle:    497
  WF centre and spread    1  (  1.497001, -1.587704, -1.222395 )     2.90912111
  WF centre and spread    2  (  1.493048, -1.225094, -1.589697 )     2.90994452
  WF centre and spread    3  (  1.117116, -1.290727, -1.291362 )     2.91857240
  Sum of centres and spreads (  4.107166, -4.103525, -4.103454 )     8.73763803
 
    497    -0.181E-05     0.0007128734        8.7376393976       3.51  <-- CONV
        O_D=      0.0085342 O_OD=      0.2577695 O_TOT=      8.7376394 <-- SPRD
 Delta: O_D= -0.3603639E-06 O_OD= -0.1445899E-05 O_TOT= -0.1806263E-05 <-- DLTA
 ------------------------------------------------------------------------------
 Cycle:    498
  WF centre and spread    1  (  1.496985, -1.587727, -1.222430 )     2.90912532
  WF centre and spread    2  (  1.493049, -1.225119, -1.589712 )     2.90994517
  WF centre and spread    3  (  1.117131, -1.290678, -1.291312 )     2.91856595
  Sum of centres and spreads (  4.107165, -4.103524, -4.103454 )     8.73763645
 
    498    -0.158E-05     0.0006358178        8.7376378133       3.51  <-- CONV
        O_D=      0.0085347 O_OD=      0.2577674 O_TOT=      8.7376378 <-- SPRD
 Delta: O_D=  0.4974794E-06 O_OD= -0.2081785E-05 O_TOT= -0.1584305E-05 <-- DLTA
 ------------------------------------------------------------------------------
 Cycle:    499
  WF centre and spread    1  (  1.496983, -1.587730, -1.222435 )     2.90912534
  WF centre and spread    2  (  1.493049, -1.225123, -1.589715 )     2.90994463
  WF centre and spread    3  (  1.117134, -1.290672, -1.291304 )     2.91856490
  Sum of centres and spreads (  4.107165, -4.103524, -4.103454 )     8.73763486
 
    499    -0.158E-05     0.0009006913        8.7376362315       3.52  <-- CONV
        O_D=      0.0085341 O_OD=      0.2577665 O_TOT=      8.7376362 <-- SPRD
 Delta: O_D= -0.6187099E-06 O_OD= -0.9631147E-06 O_TOT= -0.1581825E-05 <-- DLTA
 ------------------------------------------------------------------------------
 Cycle:    500
  WF centre and spread    1  (  1.496975, -1.587741, -1.222452 )     2.90912666
  WF centre and spread    2  (  1.493049, -1.225135, -1.589722 )     2.90994406
  WF centre and spread    3  (  1.117141, -1.290648, -1.291280 )     2.91856235
  Sum of centres and spreads (  4.107165, -4.103524, -4.103454 )     8.73763307
 
    500    -0.179E-05     0.0006336283        8.7376344373       3.53  <-- CONV
        O_D=      0.0085343 O_OD=      0.2577645 O_TOT=      8.7376344 <-- SPRD
 Delta: O_D=  0.1919066E-06 O_OD= -0.1986095E-05 O_TOT= -0.1794188E-05 <-- DLTA
 ------------------------------------------------------------------------------

 Writing checkpoint file mp-1550.chk... done

 Final State
  WF centre and spread    1  (  1.496975, -1.587741, -1.222452 )     2.90912666
  WF centre and spread    2  (  1.493049, -1.225135, -1.589722 )     2.90994406
  WF centre and spread    3  (  1.117141, -1.290648, -1.291280 )     2.91856235
  Sum of centres and spreads (  4.107165, -4.103524, -4.103454 )     8.73763307
 
         Spreads (Ang^2)       Omega I      =     8.471335661
        ================       Omega D      =     0.008534306
                               Omega OD     =     0.257764470
    Final Spread (Ang^2)       Omega Total  =     8.737634437
 ------------------------------------------------------------------------------
 Time for wannierise            3.527 (sec)

 Writing checkpoint file mp-1550.chk... done

 Time for plotting              0.000 (sec)
 Total Execution Time           4.811 (sec)

 *===========================================================================*
 |                             TIMING INFORMATION                            |
 *===========================================================================*
 |    Tag                                                Ncalls      Time (s)|
 |---------------------------------------------------------------------------|
 |kmesh: get                                        :         1         1.038|
 |overlap: allocate                                 :         1         0.002|
 |overlap: read                                     :         1         0.135|
 |wann: main                                        :         1         3.527|
 |plot: main                                        :         1         0.000|
 *---------------------------------------------------------------------------*
 
 All done: wannier90 exiting
