
     Program PWSCF v.7.1 starts on  8Apr2024 at 15:10:46 

     This program is part of the open-source Quantum ESPRESSO suite
     for quantum simulation of materials; please cite
         "P. Giannozzi et al., J. Phys.:Condens. Matter 21 395502 (2009);
         "P. Giannozzi et al., J. Phys.:Condens. Matter 29 465901 (2017);
         "P. Giannozzi et al., J. Chem. Phys. 152 154105 (2020);
          URL http://www.quantum-espresso.org", 
     in publications or presentations arising from this work. More details at
     http://www.quantum-espresso.org/quote

     Parallel version (MPI), running on    16 processors

     MPI processes distributed on     1 nodes
     247829 MiB available memory on the printing compute node when the environment starts
 
     Reading input from pw_mp-1550_nscf_k3000_E65.in
Warning: card &IONS ignored
Warning: card / ignored
Warning: card &CELL ignored
Warning: card / ignored

     Current dimensions of program PWSCF are:
     Max number of different atomic species (ntypx) = 10
     Max number of k-points (npk) =  40000
     Max angular momentum in pseudopotentials (lmaxx) =  4

     Atomic positions and unit cell read from directory:
     out/mp-1550.save/
     Atomic positions from file used, from input discarded
 
 
     R & G space division:  proc/nbgrp/npool/nimage =      16
     Subspace diagonalization in iterative solution of the eigenvalue problem:
     a serial algorithm will be used

 
     Parallelization info
     --------------------
     sticks:   dense  smooth     PW     G-vecs:    dense   smooth      PW
     Min          59      59     19                 1222     1222     230
     Max          60      60     20                 1226     1226     232
     Sum         955     955    313                19603    19603    3695
 
     Using Slab Decomposition
 


     bravais-lattice index     =            2
     lattice parameter (alat)  =      10.3424  a.u.
     unit-cell volume          =     276.5700 (a.u.)^3
     number of atoms/cell      =            2
     number of atomic types    =            2
     number of electrons       =        16.00
     number of Kohn-Sham states=           16
     kinetic-energy cutoff     =      65.0000  Ry
     charge density cutoff     =     260.0000  Ry
     Exchange-correlation= PBE
                           (   1   4   3   4   0   0   0)

     celldm(1)=  10.342409  celldm(2)=   0.000000  celldm(3)=   0.000000
     celldm(4)=   0.000000  celldm(5)=   0.000000  celldm(6)=   0.000000

     crystal axes: (cart. coord. in units of alat)
               a(1) = (  -0.500000   0.000000   0.500000 )  
               a(2) = (   0.000000   0.500000   0.500000 )  
               a(3) = (  -0.500000   0.500000   0.000000 )  

     reciprocal axes: (cart. coord. in units 2 pi/alat)
               b(1) = ( -1.000000 -1.000000  1.000000 )  
               b(2) = (  1.000000  1.000000  1.000000 )  
               b(3) = ( -1.000000  1.000000 -1.000000 )  


     PseudoPot. # 1 for Al read from file:
     /usr/scratch4/magr4826/Promotion/Python/Code/devEb/pseudo/SG15/Al.upf
     MD5 check sum: 2d9e7bc02555220d62fad08c3c4858e7
     Pseudo is Norm-conserving, Zval = 11.0
     Generated using ONCVPSP code by D. R. Hamann
     Using radial grid of  602 points,  4 beta functions with: 
                l(1) =   0
                l(2) =   0
                l(3) =   1
                l(4) =   1

     PseudoPot. # 2 for P  read from file:
     /usr/scratch4/magr4826/Promotion/Python/Code/devEb/pseudo/SG15/P.upf
     MD5 check sum: 0688a67b2b263c6b42d3d97c42745426
     Pseudo is Norm-conserving, Zval =  5.0
     Generated using ONCVPSP code by D. R. Hamann
     Using radial grid of  602 points,  4 beta functions with: 
                l(1) =   0
                l(2) =   0
                l(3) =   1
                l(4) =   1

     atomic species   valence    mass     pseudopotential
        Al            11.00    26.98150     Al( 1.00)
        P              5.00    30.97380     P ( 1.00)

     No symmetry found



   Cartesian axes

     site n.     atom                  positions (alat units)
         1           Al  tau(   1) = (   0.0000000   0.0000000   0.0000000  )
         2           P   tau(   2) = (  -0.7500000   0.7500000   0.7500000  )

     number of k points=  1728  Gaussian smearing, width (Ry)=  0.0005

     Number of k-points >= 100: set verbosity='high' to print them.

     Dense  grid:    19603 G-vectors     FFT dimensions: (  40,  40,  40)

     Estimated max dynamical RAM per process >      66.08 MB

     Estimated total dynamical RAM >       1.03 GB

     The potential is recalculated from file :
     out/mp-1550.save/charge-density

     Starting wfcs are random

     Band Structure Calculation
     Davidson diagonalization with overlap

     ethr =  5.00E-06,  avg # of iterations = 19.7

     total cpu time spent up to now is       55.6 secs

     End of band structure calculation

     Number of k-points >= 100: set verbosity='high' to print the bands.

     the Fermi energy is     7.1200 ev
     (compare with:     7.1194 eV, computed in scf)

     Writing all to output data dir out/mp-1550.save/
 
     init_run     :      0.08s CPU      0.16s WALL (       1 calls)
     electrons    :     43.43s CPU     55.10s WALL (       1 calls)

     Called by init_run:
     wfcinit      :      0.00s CPU      0.00s WALL (       1 calls)
     potinit      :      0.01s CPU      0.06s WALL (       1 calls)
     hinit0       :      0.01s CPU      0.03s WALL (       1 calls)

     Called by electrons:
     c_bands      :     43.43s CPU     55.09s WALL (       1 calls)
     v_of_rho     :      0.01s CPU      0.02s WALL (       1 calls)

     Called by c_bands:
     init_us_2    :      0.03s CPU      0.03s WALL (    1728 calls)
     init_us_2:cp :      0.03s CPU      0.03s WALL (    1728 calls)
     cegterg      :     40.75s CPU     42.22s WALL (    2280 calls)

     Called by *egterg:
     cdiaghg      :      7.80s CPU      8.09s WALL (   35715 calls)
     h_psi        :     32.53s CPU     33.73s WALL (   37995 calls)
     g_psi        :      0.13s CPU      0.13s WALL (   33987 calls)

     Called by h_psi:
     h_psi:calbec :      0.54s CPU      0.56s WALL (   37995 calls)
     vloc_psi     :     31.63s CPU     32.79s WALL (   37995 calls)
     add_vuspsi   :      0.21s CPU      0.22s WALL (   37995 calls)

     General routines
     calbec       :      0.50s CPU      0.52s WALL (   37995 calls)
     fft          :      0.01s CPU      0.03s WALL (      10 calls)
     fftw         :     29.70s CPU     30.76s WALL (  777156 calls)
 
     Parallel routines
 
     PWSCF        :     47.02s CPU   1m32.01s WALL

 
   This run was terminated on:  15:12:18   8Apr2024            

=------------------------------------------------------------------------------=
   JOB DONE.
=------------------------------------------------------------------------------=
