 
             +---------------------------------------------------+
             |                                                   |
             |                   WANNIER90                       |
             |                                                   |
             +---------------------------------------------------+
             |                                                   |
             |        Welcome to the Maximally-Localized         |
             |        Generalized Wannier Functions code         |
             |            http://www.wannier.org                 |
             |                                                   |
             |                                                   |
             |  Wannier90 Developer Group:                       |
             |    Giovanni Pizzi    (EPFL)                       |
             |    Valerio Vitale    (Cambridge)                  |
             |    David Vanderbilt  (Rutgers University)         |
             |    Nicola Marzari    (EPFL)                       |
             |    Ivo Souza         (Universidad del Pais Vasco) |
             |    Arash A. Mostofi  (Imperial College London)    |
             |    Jonathan R. Yates (University of Oxford)       |
             |                                                   |
             |  For the full list of Wannier90 3.x authors,      |
             |  please check the code documentation and the      |
             |  README on the GitHub page of the code            |
             |                                                   |
             |                                                   |
             |  Please cite                                      |
             |                                                   |
             |  [ref] "Wannier90 as a community code:            |
             |        new features and applications",            |
             |        G. Pizzi et al., J. Phys. Cond. Matt. 32,  |
             |        165902 (2020).                             |
             |        http://doi.org/10.1088/1361-648X/ab51ff    |
             |                                                   |
             |  in any publications arising from the use of      |
             |  this code. For the method please cite            |
             |                                                   |
             |  [ref] "Maximally Localized Generalised Wannier   |
             |         Functions for Composite Energy Bands"     |
             |         N. Marzari and D. Vanderbilt              |
             |         Phys. Rev. B 56 12847 (1997)              |
             |                                                   |
             |  [ref] "Maximally Localized Wannier Functions     |
             |         for Entangled Energy Bands"               |
             |         I. Souza, N. Marzari and D. Vanderbilt    |
             |         Phys. Rev. B 65 035109 (2001)             |
             |                                                   |
             |                                                   |
             | Copyright (c) 1996-2020                           |
             |        The Wannier90 Developer Group and          |
             |        individual contributors                    |
             |                                                   |
             |      Release: 3.1.0        5th March    2020      |
             |                                                   |
             | This program is free software; you can            |
             | redistribute it and/or modify it under the terms  |
             | of the GNU General Public License as published by |
             | the Free Software Foundation; either version 2 of |
             | the License, or (at your option) any later version|
             |                                                   |
             | This program is distributed in the hope that it   |
             | will be useful, but WITHOUT ANY WARRANTY; without |
             | even the implied warranty of MERCHANTABILITY or   |
             | FITNESS FOR A PARTICULAR PURPOSE. See the GNU     |
             | General Public License for more details.          |
             |                                                   |
             | You should have received a copy of the GNU General|
             | Public License along with this program; if not,   |
             | write to the Free Software Foundation, Inc.,      |
             | 675 Mass Ave, Cambridge, MA 02139, USA.           |
             |                                                   |
             +---------------------------------------------------+
             |    Execution started on  8Apr2024 at 15:15:47     |
             +---------------------------------------------------+
 
 ******************************************************************************
 * -> Using CODATA 2006 constant values                                       *
 *    (http://physics.nist.gov/cuu/Constants/index.html)                      *
 * -> Using Bohr value from CODATA                                            *
 ******************************************************************************
 

 Running in parallel on  16 CPUs

 
                                    ------
                                    SYSTEM
                                    ------
 
                              Lattice Vectors (Ang)
                    a_1    -3.333622   0.000000   3.333622
                    a_2     0.000000   3.333622   3.333622
                    a_3    -3.333622   3.333622   0.000000
 
                   Unit Cell Volume:      74.09332  (Ang^3)
 
                        Reciprocal-Space Vectors (Ang^-1)
                    b_1    -0.942396  -0.942396   0.942396
                    b_2     0.942396   0.942396   0.942396
                    b_3    -0.942396   0.942396  -0.942396
  
 *----------------------------------------------------------------------------*
 |   Site       Fractional Coordinate          Cartesian Coordinate (Ang)     |
 +----------------------------------------------------------------------------+
 | Ba   1   0.00000   0.00000   0.00000   |    0.00000   0.00000   0.00000    |
 | Se   1   0.50000   0.50000   0.50000   |   -3.33362   3.33362   3.33362    |
 *----------------------------------------------------------------------------*
                                ------------
                                K-POINT GRID
                                ------------
  
             Grid size = 12 x 12 x 12      Total points = 1728
  
  
 *---------------------------------- MAIN ------------------------------------*
 |  Number of Wannier Functions               :                 3             |
 |  Number of Objective Wannier Functions     :                 3             |
 |  Number of input Bloch states              :                 3             |
 |  Output verbosity (1=low, 5=high)          :                 1             |
 |  Timing Level (1=low, 5=high)              :                 1             |
 |  Optimisation (0=memory, 3=speed)          :                 3             |
 |  Length Unit                               :               Ang             |
 |  Post-processing setup (write *.nnkp)      :                 F             |
 |  Using Gamma-only branch of algorithms     :                 F             |
 *----------------------------------------------------------------------------*
 *------------------------------- WANNIERISE ---------------------------------*
 |  Total number of iterations                :               500             |
 |  Number of CG steps before reset           :                 5             |
 |  Trial step length for line search         :             2.000             |
 |  Convergence tolerence                     :         0.100E-09             |
 |  Convergence window                        :                -1             |
 |  Iterations between writing output         :                 1             |
 |  Iterations between backing up to disk     :               100             |
 |  Write r^2_nm to file                      :                 F             |
 |  Write xyz WF centres to file              :                 F             |
 |  Write on-site energies <0n|H|0n> to file  :                 F             |
 |  Use guiding centre to control phases      :                 F             |
 |  Use phases for initial projections        :                 F             |
 *----------------------------------------------------------------------------*
 Time to read parameters        0.173 (sec)

 *---------------------------------- K-MESH ----------------------------------*
 +----------------------------------------------------------------------------+
 |                    Distance to Nearest-Neighbour Shells                    |
 |                    ------------------------------------                    |
 |          Shell             Distance (Ang^-1)          Multiplicity         |
 |          -----             -----------------          ------------         |
 |             1                   0.136023                      8            |
 |             2                   0.157066                      6            |
 |             3                   0.222125                     12            |
 |             4                   0.260465                     24            |
 |             5                   0.272046                      8            |
 |             6                   0.314132                      6            |
 |             7                   0.342317                     24            |
 |             8                   0.351210                     24            |
 |             9                   0.384732                     24            |
 |            10                   0.408070                     32            |
 |            11                   0.444250                     12            |
 |            12                   0.464608                     48            |
 |            13                   0.471198                     30            |
 |            14                   0.496686                     24            |
 |            15                   0.514975                     24            |
 |            16                   0.520929                     24            |
 |            17                   0.544093                      8            |
 |            18                   0.560838                     48            |
 |            19                   0.566310                     24            |
 |            20                   0.587687                     48            |
 |            21                   0.603224                     72            |
 |            22                   0.628264                      6            |
 |            23                   0.642820                     24            |
 |            24                   0.647600                     48            |
 |            25                   0.666375                     36            |
 |            26                   0.680116                     56            |
 |            27                   0.684635                     24            |
 |            28                   0.702421                     24            |
 |            29                   0.715470                     72            |
 |            30                   0.719767                     48            |
 |            31                   0.736705                     24            |
 |            32                   0.749157                     48            |
 |            33                   0.769463                     24            |
 |            34                   0.781394                     72            |
 |            35                   0.785330                     30            |
 |            36                   0.800883                     72            |
 +----------------------------------------------------------------------------+
 | The b-vectors are chosen automatically                                     |
 | The following shells are used:   1                                         |
 +----------------------------------------------------------------------------+
 |                        Shell   # Nearest-Neighbours                        |
 |                        -----   --------------------                        |
 |                          1               8                                 |
 +----------------------------------------------------------------------------+
 | Completeness relation is fully satisfied [Eq. (B1), PRB 56, 12847 (1997)]  |
 +----------------------------------------------------------------------------+
 |                  b_k Vectors (Ang^-1) and Weights (Ang^2)                  |
 |                  ----------------------------------------                  |
 |            No.         b_k(x)      b_k(y)      b_k(z)        w_b           |
 |            ---        --------------------------------     --------        |
 |             1        -0.078533    0.078533   -0.078533    20.267748        |
 |             2         0.078533    0.078533    0.078533    20.267748        |
 |             3        -0.078533   -0.078533    0.078533    20.267748        |
 |             4        -0.078533    0.078533    0.078533    20.267748        |
 |             5         0.078533   -0.078533    0.078533    20.267748        |
 |             6        -0.078533   -0.078533   -0.078533    20.267748        |
 |             7         0.078533    0.078533   -0.078533    20.267748        |
 |             8         0.078533   -0.078533   -0.078533    20.267748        |
 +----------------------------------------------------------------------------+
 |                           b_k Directions (Ang^-1)                          |
 |                           -----------------------                          |
 |            No.           x           y           z                         |
 |            ---        --------------------------------                     |
 |             1        -0.078533    0.078533   -0.078533                     |
 |             2         0.078533    0.078533    0.078533                     |
 |             3        -0.078533   -0.078533    0.078533                     |
 |             4        -0.078533    0.078533    0.078533                     |
 +----------------------------------------------------------------------------+
  
 Time to get kmesh              0.724 (sec)
 *============================================================================*
 |                              MEMORY ESTIMATE                               |
 |         Maximum RAM allocated during each phase of the calculation         |
 *============================================================================*
 |                            Wannierise:            7.00 Mb                  |
 |                          plot_wannier:            7.00 Mb                  |
 *----------------------------------------------------------------------------*
  
 Starting a new Wannier90 calculation ...


 Reading overlaps from mp-1253.mmn    :  Created on  8Apr2024 at 15:15:38

 Reading projections from mp-1253.amn :  Created on  8Apr2024 at 15:15:37  with SCDM

 Time to read overlaps          0.086 (sec)

 Writing checkpoint file mp-1253.chk... done

 
 *------------------------------- WANNIERISE ---------------------------------*
 +--------------------------------------------------------------------+<-- CONV
 | Iter  Delta Spread     RMS Gradient      Spread (Ang^2)      Time  |<-- CONV
 +--------------------------------------------------------------------+<-- CONV
 
 ------------------------------------------------------------------------------
 Initial State
  WF centre and spread    1  ( -0.000233, -0.000813, -3.333434 )     3.11162512
  WF centre and spread    2  ( -0.000553, -3.332934,  0.000072 )     3.11215457
  WF centre and spread    3  ( -3.333176, -0.000086, -0.000687 )     3.11460930
  Sum of centres and spreads ( -3.333961, -3.333834, -3.334050 )     9.33838899
 
      0     0.934E+01     0.0000000000        9.3383916603       0.00  <-- CONV
        O_D=      0.0571927 O_OD=      0.2095949 O_TOT=      9.3383917 <-- SPRD
 ------------------------------------------------------------------------------
 Cycle:      1
  WF centre and spread    1  ( -0.000027, -0.000211, -3.333622 )     3.04665432
  WF centre and spread    2  ( -0.000110, -3.333510,  0.000044 )     3.04701240
  WF centre and spread    3  ( -3.333594,  0.000008, -0.000155 )     3.04746750
  Sum of centres and spreads ( -3.333731, -3.333713, -3.333733 )     9.14113422
 
      1    -0.197E+00     0.1461049000        9.1411368849       0.01  <-- CONV
        O_D=      0.0113453 O_OD=      0.0581876 O_TOT=      9.1411369 <-- SPRD
 Delta: O_D= -0.4584741E-01 O_OD= -0.1514074E+00 O_TOT= -0.1972548E+00 <-- DLTA
 ------------------------------------------------------------------------------
 Cycle:      2
  WF centre and spread    1  (  0.000022, -0.000107, -3.333713 )     3.03947958
  WF centre and spread    2  ( -0.000027, -3.333619,  0.000059 )     3.03961915
  WF centre and spread    3  ( -3.333701,  0.000032, -0.000050 )     3.03991690
  Sum of centres and spreads ( -3.333707, -3.333693, -3.333704 )     9.11901563
 
      2    -0.221E-01     0.0956907643        9.1190183000       0.01  <-- CONV
        O_D=      0.0055796 O_OD=      0.0418347 O_TOT=      9.1190183 <-- SPRD
 Delta: O_D= -0.5765751E-02 O_OD= -0.1635283E-01 O_TOT= -0.2211858E-01 <-- DLTA
 ------------------------------------------------------------------------------
 Cycle:      3
  WF centre and spread    1  (  0.000033, -0.000070, -3.333729 )     3.03745203
  WF centre and spread    2  ( -0.000005, -3.333650,  0.000058 )     3.03750185
  WF centre and spread    3  ( -3.333722,  0.000036, -0.000021 )     3.03778411
  Sum of centres and spreads ( -3.333694, -3.333684, -3.333692 )     9.11273798
 
      3    -0.628E-02     0.0561018161        9.1127406478       0.02  <-- CONV
        O_D=      0.0034693 O_OD=      0.0376674 O_TOT=      9.1127406 <-- SPRD
 Delta: O_D= -0.2110296E-02 O_OD= -0.4167356E-02 O_TOT= -0.6277652E-02 <-- DLTA
 ------------------------------------------------------------------------------
 Cycle:      4
  WF centre and spread    1  (  0.000032, -0.000047, -3.333720 )     3.03639181
  WF centre and spread    2  (  0.000003, -3.333658,  0.000050 )     3.03641914
  WF centre and spread    3  ( -3.333715,  0.000032, -0.000009 )     3.03667527
  Sum of centres and spreads ( -3.333681, -3.333673, -3.333679 )     9.10948622
 
      4    -0.325E-02     0.0386887173        9.1094888833       0.02  <-- CONV
        O_D=      0.0021583 O_OD=      0.0357266 O_TOT=      9.1094889 <-- SPRD
 Delta: O_D= -0.1311005E-02 O_OD= -0.1940760E-02 O_TOT= -0.3251765E-02 <-- DLTA
 ------------------------------------------------------------------------------
 Cycle:      5
  WF centre and spread    1  (  0.000024, -0.000025, -3.333692 )     3.03543630
  WF centre and spread    2  (  0.000005, -3.333654,  0.000034 )     3.03546848
  WF centre and spread    3  ( -3.333689,  0.000022, -0.000002 )     3.03566963
  Sum of centres and spreads ( -3.333660, -3.333657, -3.333659 )     9.10657441
 
      5    -0.291E-02     0.0333911194        9.1065770751       0.03  <-- CONV
        O_D=      0.0011093 O_OD=      0.0338638 O_TOT=      9.1065771 <-- SPRD
 Delta: O_D= -0.1049001E-02 O_OD= -0.1862807E-02 O_TOT= -0.2911808E-02 <-- DLTA
 ------------------------------------------------------------------------------
 Cycle:      6
  WF centre and spread    1  (  0.000014, -0.000011, -3.333661 )     3.03478894
  WF centre and spread    2  (  0.000004, -3.333643,  0.000019 )     3.03482022
  WF centre and spread    3  ( -3.333660,  0.000012,  0.000000 )     3.03499493
  Sum of centres and spreads ( -3.333642, -3.333641, -3.333642 )     9.10460408
 
      6    -0.197E-02     0.0308790998        9.1046067491       0.03  <-- CONV
        O_D=      0.0004341 O_OD=      0.0325687 O_TOT=      9.1046067 <-- SPRD
 Delta: O_D= -0.6751901E-03 O_OD= -0.1295136E-02 O_TOT= -0.1970326E-02 <-- DLTA
 ------------------------------------------------------------------------------
 Cycle:      7
  WF centre and spread    1  (  0.000013, -0.000011, -3.333658 )     3.03457364
  WF centre and spread    2  (  0.000004, -3.333640,  0.000018 )     3.03459515
  WF centre and spread    3  ( -3.333657,  0.000012,  0.000000 )     3.03477522
  Sum of centres and spreads ( -3.333640, -3.333640, -3.333640 )     9.10394401
 
      7    -0.660E-03     0.0225708142        9.1039466800       0.04  <-- CONV
        O_D=      0.0002575 O_OD=      0.0320851 O_TOT=      9.1039467 <-- SPRD
 Delta: O_D= -0.1765229E-03 O_OD= -0.4835463E-03 O_TOT= -0.6600692E-03 <-- DLTA
 ------------------------------------------------------------------------------
 Cycle:      8
  WF centre and spread    1  (  0.000010, -0.000012, -3.333650 )     3.03443801
  WF centre and spread    2  (  0.000001, -3.333634,  0.000015 )     3.03445277
  WF centre and spread    3  ( -3.333648,  0.000009, -0.000002 )     3.03463962
  Sum of centres and spreads ( -3.333636, -3.333636, -3.333637 )     9.10353040
 
      8    -0.414E-03     0.0143967569        9.1035330706       0.04  <-- CONV
        O_D=      0.0001316 O_OD=      0.0317974 O_TOT=      9.1035331 <-- SPRD
 Delta: O_D= -0.1259051E-03 O_OD= -0.2877042E-03 O_TOT= -0.4136093E-03 <-- DLTA
 ------------------------------------------------------------------------------
 Cycle:      9
  WF centre and spread    1  (  0.000007, -0.000012, -3.333642 )     3.03438198
  WF centre and spread    2  ( -0.000000, -3.333628,  0.000012 )     3.03439410
  WF centre and spread    3  ( -3.333640,  0.000007, -0.000004 )     3.03458259
  Sum of centres and spreads ( -3.333633, -3.333633, -3.333635 )     9.10335867
 
      9    -0.172E-03     0.0097693842        9.1033613330       0.05  <-- CONV
        O_D=      0.0000817 O_OD=      0.0316757 O_TOT=      9.1033613 <-- SPRD
 Delta: O_D= -0.4996513E-04 O_OD= -0.1217725E-03 O_TOT= -0.1717376E-03 <-- DLTA
 ------------------------------------------------------------------------------
 Cycle:     10
  WF centre and spread    1  (  0.000005, -0.000011, -3.333636 )     3.03435513
  WF centre and spread    2  ( -0.000002, -3.333624,  0.000009 )     3.03436644
  WF centre and spread    3  ( -3.333633,  0.000005, -0.000005 )     3.03455416
  Sum of centres and spreads ( -3.333630, -3.333630, -3.333632 )     9.10327573
 
     10    -0.829E-04     0.0063552215        9.1032783946       0.05  <-- CONV
        O_D=      0.0000548 O_OD=      0.0316196 O_TOT=      9.1032784 <-- SPRD
 Delta: O_D= -0.2688281E-04 O_OD= -0.5605565E-04 O_TOT= -0.8293846E-04 <-- DLTA
 ------------------------------------------------------------------------------
 Cycle:     11
  WF centre and spread    1  (  0.000002, -0.000009, -3.333628 )     3.03432824
  WF centre and spread    2  ( -0.000003, -3.333620,  0.000005 )     3.03433882
  WF centre and spread    3  ( -3.333625,  0.000002, -0.000006 )     3.03452341
  Sum of centres and spreads ( -3.333627, -3.333627, -3.333629 )     9.10319048
 
     11    -0.852E-04     0.0051119761        9.1031931472       0.05  <-- CONV
        O_D=      0.0000263 O_OD=      0.0315628 O_TOT=      9.1031931 <-- SPRD
 Delta: O_D= -0.2846672E-04 O_OD= -0.5678061E-04 O_TOT= -0.8524733E-04 <-- DLTA
 ------------------------------------------------------------------------------
 Cycle:     12
  WF centre and spread    1  ( -0.000000, -0.000007, -3.333623 )     3.03431472
  WF centre and spread    2  ( -0.000003, -3.333619,  0.000002 )     3.03432118
  WF centre and spread    3  ( -3.333621,  0.000000, -0.000006 )     3.03450717
  Sum of centres and spreads ( -3.333624, -3.333625, -3.333627 )     9.10314308
 
     12    -0.474E-04     0.0052131804        9.1031457425       0.06  <-- CONV
        O_D=      0.0000104 O_OD=      0.0315313 O_TOT=      9.1031457 <-- SPRD
 Delta: O_D= -0.1589240E-04 O_OD= -0.3151235E-04 O_TOT= -0.4740476E-04 <-- DLTA
 ------------------------------------------------------------------------------
 Cycle:     13
  WF centre and spread    1  ( -0.000000, -0.000006, -3.333624 )     3.03431052
  WF centre and spread    2  ( -0.000003, -3.333619,  0.000002 )     3.03431550
  WF centre and spread    3  ( -3.333621,  0.000000, -0.000005 )     3.03450266
  Sum of centres and spreads ( -3.333624, -3.333625, -3.333627 )     9.10312868
 
     13    -0.144E-04     0.0035139001        9.1031313473       0.06  <-- CONV
        O_D=      0.0000062 O_OD=      0.0315211 O_TOT=      9.1031313 <-- SPRD
 Delta: O_D= -0.4202467E-05 O_OD= -0.1019270E-04 O_TOT= -0.1439516E-04 <-- DLTA
 ------------------------------------------------------------------------------
 Cycle:     14
  WF centre and spread    1  (  0.000000, -0.000005, -3.333624 )     3.03430868
  WF centre and spread    2  ( -0.000002, -3.333620,  0.000002 )     3.03431204
  WF centre and spread    3  ( -3.333622,  0.000000, -0.000004 )     3.03450037
  Sum of centres and spreads ( -3.333624, -3.333625, -3.333627 )     9.10312108
 
     14    -0.760E-05     0.0020542167        9.1031237499       0.07  <-- CONV
        O_D=      0.0000038 O_OD=      0.0315160 O_TOT=      9.1031237 <-- SPRD
 Delta: O_D= -0.2442788E-05 O_OD= -0.5154678E-05 O_TOT= -0.7597466E-05 <-- DLTA
 ------------------------------------------------------------------------------
 Cycle:     15
  WF centre and spread    1  (  0.000000, -0.000004, -3.333625 )     3.03430741
  WF centre and spread    2  ( -0.000001, -3.333621,  0.000002 )     3.03431026
  WF centre and spread    3  ( -3.333623,  0.000001, -0.000003 )     3.03449869
  Sum of centres and spreads ( -3.333623, -3.333624, -3.333626 )     9.10311636
 
     15    -0.472E-05     0.0013652804        9.1031190272       0.07  <-- CONV
        O_D=      0.0000025 O_OD=      0.0315126 O_TOT=      9.1031190 <-- SPRD
 Delta: O_D= -0.1329676E-05 O_OD= -0.3392949E-05 O_TOT= -0.4722625E-05 <-- DLTA
 ------------------------------------------------------------------------------
 Cycle:     16
  WF centre and spread    1  (  0.000001, -0.000002, -3.333625 )     3.03430630
  WF centre and spread    2  ( -0.000000, -3.333623,  0.000001 )     3.03430913
  WF centre and spread    3  ( -3.333623,  0.000001, -0.000002 )     3.03449729
  Sum of centres and spreads ( -3.333623, -3.333624, -3.333625 )     9.10311272
 
     16    -0.364E-05     0.0012469995        9.1031153875       0.08  <-- CONV
        O_D=      0.0000013 O_OD=      0.0315101 O_TOT=      9.1031154 <-- SPRD
 Delta: O_D= -0.1175436E-05 O_OD= -0.2464339E-05 O_TOT= -0.3639775E-05 <-- DLTA
 ------------------------------------------------------------------------------
 Cycle:     17
  WF centre and spread    1  (  0.000001, -0.000001, -3.333625 )     3.03430557
  WF centre and spread    2  (  0.000001, -3.333623,  0.000001 )     3.03430849
  WF centre and spread    3  ( -3.333623,  0.000001, -0.000001 )     3.03449642
  Sum of centres and spreads ( -3.333622, -3.333623, -3.333624 )     9.10311048
 
     17    -0.224E-05     0.0010591534        9.1031131494       0.08  <-- CONV
        O_D=      0.0000006 O_OD=      0.0315086 O_TOT=      9.1031131 <-- SPRD
 Delta: O_D= -0.7145849E-06 O_OD= -0.1523458E-05 O_TOT= -0.2238043E-05 <-- DLTA
 ------------------------------------------------------------------------------
 Cycle:     18
  WF centre and spread    1  (  0.000001, -0.000000, -3.333624 )     3.03430536
  WF centre and spread    2  (  0.000001, -3.333623,  0.000001 )     3.03430821
  WF centre and spread    3  ( -3.333623,  0.000001, -0.000001 )     3.03449612
  Sum of centres and spreads ( -3.333621, -3.333623, -3.333624 )     9.10310969
 
     18    -0.793E-06     0.0007202396        9.1031123568       0.08  <-- CONV
        O_D=      0.0000003 O_OD=      0.0315080 O_TOT=      9.1031124 <-- SPRD
 Delta: O_D= -0.2486248E-06 O_OD= -0.5439973E-06 O_TOT= -0.7926221E-06 <-- DLTA
 ------------------------------------------------------------------------------
 Cycle:     19
  WF centre and spread    1  (  0.000001, -0.000000, -3.333624 )     3.03430531
  WF centre and spread    2  (  0.000001, -3.333623,  0.000001 )     3.03430800
  WF centre and spread    3  ( -3.333623,  0.000001, -0.000001 )     3.03449601
  Sum of centres and spreads ( -3.333621, -3.333623, -3.333624 )     9.10310931
 
     19    -0.375E-06     0.0004818533        9.1031119820       0.09  <-- CONV
        O_D=      0.0000002 O_OD=      0.0315078 O_TOT=      9.1031120 <-- SPRD
 Delta: O_D= -0.1018474E-06 O_OD= -0.2728932E-06 O_TOT= -0.3747406E-06 <-- DLTA
 ------------------------------------------------------------------------------
 Cycle:     20
  WF centre and spread    1  (  0.000001, -0.000000, -3.333624 )     3.03430534
  WF centre and spread    2  (  0.000001, -3.333623,  0.000001 )     3.03430773
  WF centre and spread    3  ( -3.333623,  0.000000, -0.000001 )     3.03449591
  Sum of centres and spreads ( -3.333621, -3.333623, -3.333624 )     9.10310898
 
     20    -0.336E-06     0.0003871611        9.1031116456       0.09  <-- CONV
        O_D=      0.0000001 O_OD=      0.0315075 O_TOT=      9.1031116 <-- SPRD
 Delta: O_D= -0.8858189E-07 O_OD= -0.2478805E-06 O_TOT= -0.3364624E-06 <-- DLTA
 ------------------------------------------------------------------------------
 Cycle:     21
  WF centre and spread    1  (  0.000001, -0.000000, -3.333623 )     3.03430537
  WF centre and spread    2  (  0.000000, -3.333623,  0.000001 )     3.03430757
  WF centre and spread    3  ( -3.333622,  0.000000, -0.000001 )     3.03449585
  Sum of centres and spreads ( -3.333621, -3.333623, -3.333624 )     9.10310878
 
     21    -0.197E-06     0.0003176248        9.1031114485       0.09  <-- CONV
        O_D=      0.0000001 O_OD=      0.0315074 O_TOT=      9.1031114 <-- SPRD
 Delta: O_D= -0.5066348E-07 O_OD= -0.1464188E-06 O_TOT= -0.1970823E-06 <-- DLTA
 ------------------------------------------------------------------------------
 Cycle:     22
  WF centre and spread    1  (  0.000000, -0.000000, -3.333623 )     3.03430537
  WF centre and spread    2  (  0.000000, -3.333623,  0.000000 )     3.03430750
  WF centre and spread    3  ( -3.333622,  0.000000, -0.000001 )     3.03449580
  Sum of centres and spreads ( -3.333621, -3.333623, -3.333624 )     9.10310867
 
     22    -0.109E-06     0.0002276667        9.1031113395       0.10  <-- CONV
        O_D=      0.0000000 O_OD=      0.0315073 O_TOT=      9.1031113 <-- SPRD
 Delta: O_D= -0.2930423E-07 O_OD= -0.7969738E-07 O_TOT= -0.1090016E-06 <-- DLTA
 ------------------------------------------------------------------------------
 Cycle:     23
  WF centre and spread    1  (  0.000000, -0.000000, -3.333623 )     3.03430537
  WF centre and spread    2  (  0.000000, -3.333623,  0.000000 )     3.03430748
  WF centre and spread    3  ( -3.333622,  0.000000, -0.000001 )     3.03449574
  Sum of centres and spreads ( -3.333621, -3.333623, -3.333623 )     9.10310859
 
     23    -0.857E-07     0.0001780072        9.1031112538       0.10  <-- CONV
        O_D=      0.0000000 O_OD=      0.0315072 O_TOT=      9.1031113 <-- SPRD
 Delta: O_D= -0.1573539E-07 O_OD= -0.6996753E-07 O_TOT= -0.8570292E-07 <-- DLTA
 ------------------------------------------------------------------------------
 Cycle:     24
  WF centre and spread    1  (  0.000000, -0.000000, -3.333623 )     3.03430537
  WF centre and spread    2  (  0.000000, -3.333623,  0.000000 )     3.03430746
  WF centre and spread    3  ( -3.333622,  0.000000, -0.000001 )     3.03449570
  Sum of centres and spreads ( -3.333621, -3.333623, -3.333623 )     9.10310854
 
     24    -0.480E-07     0.0001647112        9.1031112058       0.10  <-- CONV
        O_D=      0.0000000 O_OD=      0.0315072 O_TOT=      9.1031112 <-- SPRD
 Delta: O_D= -0.1053288E-07 O_OD= -0.3747020E-07 O_TOT= -0.4800308E-07 <-- DLTA
 ------------------------------------------------------------------------------
 Cycle:     25
  WF centre and spread    1  (  0.000000, -0.000000, -3.333623 )     3.03430537
  WF centre and spread    2  (  0.000000, -3.333623,  0.000000 )     3.03430744
  WF centre and spread    3  ( -3.333622,  0.000000, -0.000001 )     3.03449570
  Sum of centres and spreads ( -3.333621, -3.333623, -3.333623 )     9.10310851
 
     25    -0.270E-07     0.0001466519        9.1031111788       0.11  <-- CONV
        O_D=      0.0000000 O_OD=      0.0315072 O_TOT=      9.1031112 <-- SPRD
 Delta: O_D= -0.7178106E-08 O_OD= -0.1985913E-07 O_TOT= -0.2703723E-07 <-- DLTA
 ------------------------------------------------------------------------------
 Cycle:     26
  WF centre and spread    1  (  0.000000, -0.000000, -3.333623 )     3.03430537
  WF centre and spread    2  (  0.000000, -3.333623,  0.000000 )     3.03430742
  WF centre and spread    3  ( -3.333622,  0.000000, -0.000001 )     3.03449570
  Sum of centres and spreads ( -3.333621, -3.333623, -3.333623 )     9.10310849
 
     26    -0.224E-07     0.0001013090        9.1031111564       0.11  <-- CONV
        O_D=      0.0000000 O_OD=      0.0315071 O_TOT=      9.1031112 <-- SPRD
 Delta: O_D= -0.2770078E-08 O_OD= -0.1963637E-07 O_TOT= -0.2240645E-07 <-- DLTA
 ------------------------------------------------------------------------------
 Cycle:     27
  WF centre and spread    1  (  0.000000,  0.000000, -3.333623 )     3.03430536
  WF centre and spread    2  (  0.000001, -3.333623,  0.000000 )     3.03430741
  WF centre and spread    3  ( -3.333622,  0.000000, -0.000001 )     3.03449570
  Sum of centres and spreads ( -3.333621, -3.333623, -3.333623 )     9.10310846
 
     27    -0.265E-07     0.0000909468        9.1031111299       0.11  <-- CONV
        O_D=      0.0000000 O_OD=      0.0315071 O_TOT=      9.1031111 <-- SPRD
 Delta: O_D=  0.2790881E-08 O_OD= -0.2928159E-07 O_TOT= -0.2649071E-07 <-- DLTA
 ------------------------------------------------------------------------------
 Cycle:     28
  WF centre and spread    1  (  0.000000,  0.000000, -3.333623 )     3.03430532
  WF centre and spread    2  (  0.000001, -3.333623,  0.000000 )     3.03430742
  WF centre and spread    3  ( -3.333622,  0.000000, -0.000000 )     3.03449569
  Sum of centres and spreads ( -3.333621, -3.333622, -3.333623 )     9.10310842
 
     28    -0.397E-07     0.0001178122        9.1031110902       0.12  <-- CONV
        O_D=      0.0000000 O_OD=      0.0315071 O_TOT=      9.1031111 <-- SPRD
 Delta: O_D=  0.7344504E-08 O_OD= -0.4702355E-07 O_TOT= -0.3967905E-07 <-- DLTA
 ------------------------------------------------------------------------------
 Cycle:     29
  WF centre and spread    1  (  0.000001,  0.000000, -3.333623 )     3.03430528
  WF centre and spread    2  (  0.000001, -3.333623,  0.000000 )     3.03430741
  WF centre and spread    3  ( -3.333622,  0.000000, -0.000000 )     3.03449568
  Sum of centres and spreads ( -3.333621, -3.333622, -3.333623 )     9.10310837
 
     29    -0.511E-07     0.0001529343        9.1031110390       0.12  <-- CONV
        O_D=      0.0000000 O_OD=      0.0315070 O_TOT=      9.1031110 <-- SPRD
 Delta: O_D=  0.1040999E-07 O_OD= -0.6155767E-07 O_TOT= -0.5114769E-07 <-- DLTA
 ------------------------------------------------------------------------------
 Cycle:     30
  WF centre and spread    1  (  0.000001,  0.000001, -3.333623 )     3.03430527
  WF centre and spread    2  (  0.000001, -3.333623,  0.000000 )     3.03430738
  WF centre and spread    3  ( -3.333622,  0.000000, -0.000000 )     3.03449567
  Sum of centres and spreads ( -3.333621, -3.333622, -3.333623 )     9.10310831
 
     30    -0.607E-07     0.0001539326        9.1031109783       0.12  <-- CONV
        O_D=      0.0000000 O_OD=      0.0315069 O_TOT=      9.1031110 <-- SPRD
 Delta: O_D=  0.1156976E-07 O_OD= -0.7230908E-07 O_TOT= -0.6073932E-07 <-- DLTA
 ------------------------------------------------------------------------------
 Cycle:     31
  WF centre and spread    1  (  0.000001,  0.000001, -3.333623 )     3.03430526
  WF centre and spread    2  (  0.000001, -3.333623,  0.000000 )     3.03430734
  WF centre and spread    3  ( -3.333622,  0.000000, -0.000000 )     3.03449565
  Sum of centres and spreads ( -3.333621, -3.333622, -3.333623 )     9.10310825
 
     31    -0.601E-07     0.0002083669        9.1031109182       0.12  <-- CONV
        O_D=      0.0000000 O_OD=      0.0315069 O_TOT=      9.1031109 <-- SPRD
 Delta: O_D= -0.1575945E-07 O_OD= -0.4437164E-07 O_TOT= -0.6013110E-07 <-- DLTA
 ------------------------------------------------------------------------------
 Cycle:     32
  WF centre and spread    1  (  0.000000,  0.000000, -3.333623 )     3.03430527
  WF centre and spread    2  (  0.000001, -3.333623,  0.000000 )     3.03430728
  WF centre and spread    3  ( -3.333622,  0.000000, -0.000000 )     3.03449564
  Sum of centres and spreads ( -3.333621, -3.333622, -3.333623 )     9.10310820
 
     32    -0.524E-07     0.0001421081        9.1031108658       0.13  <-- CONV
        O_D=      0.0000000 O_OD=      0.0315068 O_TOT=      9.1031109 <-- SPRD
 Delta: O_D= -0.9123915E-08 O_OD= -0.4324913E-07 O_TOT= -0.5237305E-07 <-- DLTA
 ------------------------------------------------------------------------------
 Cycle:     33
  WF centre and spread    1  (  0.000000,  0.000000, -3.333623 )     3.03430528
  WF centre and spread    2  (  0.000001, -3.333623,  0.000000 )     3.03430724
  WF centre and spread    3  ( -3.333622,  0.000000, -0.000000 )     3.03449564
  Sum of centres and spreads ( -3.333621, -3.333622, -3.333623 )     9.10310816
 
     33    -0.426E-07     0.0001317360        9.1031108232       0.13  <-- CONV
        O_D=      0.0000000 O_OD=      0.0315068 O_TOT=      9.1031108 <-- SPRD
 Delta: O_D= -0.3838496E-08 O_OD= -0.3875243E-07 O_TOT= -0.4259092E-07 <-- DLTA
 ------------------------------------------------------------------------------
 Cycle:     34
  WF centre and spread    1  (  0.000000,  0.000000, -3.333623 )     3.03430527
  WF centre and spread    2  (  0.000001, -3.333623,  0.000000 )     3.03430723
  WF centre and spread    3  ( -3.333622,  0.000000, -0.000001 )     3.03449564
  Sum of centres and spreads ( -3.333621, -3.333622, -3.333623 )     9.10310813
 
     34    -0.286E-07     0.0001220048        9.1031107946       0.13  <-- CONV
        O_D=      0.0000000 O_OD=      0.0315068 O_TOT=      9.1031108 <-- SPRD
 Delta: O_D= -0.1866091E-08 O_OD= -0.2676166E-07 O_TOT= -0.2862775E-07 <-- DLTA
 ------------------------------------------------------------------------------
 Cycle:     35
  WF centre and spread    1  (  0.000000,  0.000000, -3.333623 )     3.03430523
  WF centre and spread    2  (  0.000000, -3.333623,  0.000000 )     3.03430724
  WF centre and spread    3  ( -3.333622,  0.000000, -0.000001 )     3.03449563
  Sum of centres and spreads ( -3.333621, -3.333622, -3.333623 )     9.10310810
 
     35    -0.263E-07     0.0000951738        9.1031107683       0.14  <-- CONV
        O_D=      0.0000000 O_OD=      0.0315068 O_TOT=      9.1031108 <-- SPRD
 Delta: O_D=  0.1151189E-08 O_OD= -0.2745559E-07 O_TOT= -0.2630440E-07 <-- DLTA
 ------------------------------------------------------------------------------
 Cycle:     36
  WF centre and spread    1  (  0.000000, -0.000000, -3.333623 )     3.03430517
  WF centre and spread    2  (  0.000000, -3.333623,  0.000000 )     3.03430727
  WF centre and spread    3  ( -3.333622,  0.000000, -0.000001 )     3.03449564
  Sum of centres and spreads ( -3.333621, -3.333623, -3.333623 )     9.10310807
 
     36    -0.275E-07     0.0000962454        9.1031107408       0.14  <-- CONV
        O_D=      0.0000000 O_OD=      0.0315067 O_TOT=      9.1031107 <-- SPRD
 Delta: O_D=  0.9524088E-08 O_OD= -0.3698452E-07 O_TOT= -0.2746044E-07 <-- DLTA
 ------------------------------------------------------------------------------
 Cycle:     37
  WF centre and spread    1  (  0.000000, -0.000000, -3.333623 )     3.03430516
  WF centre and spread    2  (  0.000000, -3.333623,  0.000000 )     3.03430724
  WF centre and spread    3  ( -3.333622,  0.000000, -0.000001 )     3.03449563
  Sum of centres and spreads ( -3.333621, -3.333623, -3.333623 )     9.10310804
 
     37    -0.326E-07     0.0001828664        9.1031107082       0.14  <-- CONV
        O_D=      0.0000000 O_OD=      0.0315067 O_TOT=      9.1031107 <-- SPRD
 Delta: O_D= -0.1139289E-07 O_OD= -0.2123973E-07 O_TOT= -0.3263261E-07 <-- DLTA
 ------------------------------------------------------------------------------
 Cycle:     38
  WF centre and spread    1  (  0.000000,  0.000000, -3.333623 )     3.03430517
  WF centre and spread    2  (  0.000000, -3.333623,  0.000000 )     3.03430721
  WF centre and spread    3  ( -3.333622,  0.000000, -0.000001 )     3.03449563
  Sum of centres and spreads ( -3.333621, -3.333623, -3.333623 )     9.10310802
 
     38    -0.199E-07     0.0000874574        9.1031106882       0.14  <-- CONV
        O_D=      0.0000000 O_OD=      0.0315067 O_TOT=      9.1031107 <-- SPRD
 Delta: O_D= -0.2196390E-08 O_OD= -0.1773870E-07 O_TOT= -0.1993510E-07 <-- DLTA
 ------------------------------------------------------------------------------
 Cycle:     39
  WF centre and spread    1  (  0.000000,  0.000000, -3.333623 )     3.03430517
  WF centre and spread    2  (  0.000001, -3.333623,  0.000000 )     3.03430719
  WF centre and spread    3  ( -3.333622,  0.000000, -0.000001 )     3.03449563
  Sum of centres and spreads ( -3.333621, -3.333622, -3.333623 )     9.10310799
 
     39    -0.272E-07     0.0000845910        9.1031106610       0.15  <-- CONV
        O_D=      0.0000000 O_OD=      0.0315067 O_TOT=      9.1031107 <-- SPRD
 Delta: O_D=  0.1787545E-09 O_OD= -0.2738265E-07 O_TOT= -0.2720389E-07 <-- DLTA
 ------------------------------------------------------------------------------
 Cycle:     40
  WF centre and spread    1  (  0.000000,  0.000000, -3.333623 )     3.03430515
  WF centre and spread    2  (  0.000001, -3.333623,  0.000000 )     3.03430718
  WF centre and spread    3  ( -3.333622,  0.000000, -0.000000 )     3.03449563
  Sum of centres and spreads ( -3.333621, -3.333622, -3.333623 )     9.10310796
 
     40    -0.354E-07     0.0000908803        9.1031106256       0.15  <-- CONV
        O_D=      0.0000000 O_OD=      0.0315066 O_TOT=      9.1031106 <-- SPRD
 Delta: O_D=  0.3954162E-09 O_OD= -0.3582948E-07 O_TOT= -0.3543406E-07 <-- DLTA
 ------------------------------------------------------------------------------
 Cycle:     41
  WF centre and spread    1  (  0.000001,  0.000000, -3.333623 )     3.03430510
  WF centre and spread    2  (  0.000001, -3.333623,  0.000000 )     3.03430719
  WF centre and spread    3  ( -3.333622,  0.000000, -0.000000 )     3.03449562
  Sum of centres and spreads ( -3.333621, -3.333622, -3.333623 )     9.10310792
 
     41    -0.402E-07     0.0000923283        9.1031105854       0.15  <-- CONV
        O_D=      0.0000000 O_OD=      0.0315066 O_TOT=      9.1031106 <-- SPRD
 Delta: O_D=  0.1328246E-07 O_OD= -0.5344544E-07 O_TOT= -0.4016297E-07 <-- DLTA
 ------------------------------------------------------------------------------
 Cycle:     42
  WF centre and spread    1  (  0.000001,  0.000000, -3.333623 )     3.03430510
  WF centre and spread    2  (  0.000001, -3.333623,  0.000000 )     3.03430717
  WF centre and spread    3  ( -3.333622,  0.000000, -0.000000 )     3.03449561
  Sum of centres and spreads ( -3.333621, -3.333622, -3.333623 )     9.10310788
 
     42    -0.354E-07     0.0001972416        9.1031105500       0.15  <-- CONV
        O_D=      0.0000000 O_OD=      0.0315065 O_TOT=      9.1031106 <-- SPRD
 Delta: O_D= -0.1024432E-07 O_OD= -0.2516967E-07 O_TOT= -0.3541399E-07 <-- DLTA
 ------------------------------------------------------------------------------
 Cycle:     43
  WF centre and spread    1  (  0.000000,  0.000000, -3.333623 )     3.03430511
  WF centre and spread    2  (  0.000001, -3.333623,  0.000000 )     3.03430713
  WF centre and spread    3  ( -3.333622,  0.000000, -0.000001 )     3.03449561
  Sum of centres and spreads ( -3.333621, -3.333622, -3.333623 )     9.10310785
 
     43    -0.320E-07     0.0000882014        9.1031105181       0.16  <-- CONV
        O_D=      0.0000000 O_OD=      0.0315065 O_TOT=      9.1031105 <-- SPRD
 Delta: O_D=  0.1194406E-08 O_OD= -0.3315198E-07 O_TOT= -0.3195757E-07 <-- DLTA
 ------------------------------------------------------------------------------
 Cycle:     44
  WF centre and spread    1  (  0.000000,  0.000000, -3.333623 )     3.03430512
  WF centre and spread    2  (  0.000001, -3.333623,  0.000000 )     3.03430710
  WF centre and spread    3  ( -3.333622,  0.000000, -0.000001 )     3.03449561
  Sum of centres and spreads ( -3.333621, -3.333622, -3.333623 )     9.10310783
 
     44    -0.223E-07     0.0001383439        9.1031104958       0.16  <-- CONV
        O_D=      0.0000000 O_OD=      0.0315065 O_TOT=      9.1031105 <-- SPRD
 Delta: O_D=  0.2803697E-08 O_OD= -0.2506591E-07 O_TOT= -0.2226221E-07 <-- DLTA
 ------------------------------------------------------------------------------
 Cycle:     45
  WF centre and spread    1  (  0.000000,  0.000000, -3.333623 )     3.03430508
  WF centre and spread    2  (  0.000000, -3.333623,  0.000000 )     3.03430711
  WF centre and spread    3  ( -3.333622,  0.000000, -0.000001 )     3.03449560
  Sum of centres and spreads ( -3.333621, -3.333622, -3.333623 )     9.10310779
 
     45    -0.352E-07     0.0001125674        9.1031104606       0.16  <-- CONV
        O_D=      0.0000000 O_OD=      0.0315064 O_TOT=      9.1031105 <-- SPRD
 Delta: O_D= -0.1435772E-08 O_OD= -0.3377386E-07 O_TOT= -0.3520963E-07 <-- DLTA
 ------------------------------------------------------------------------------
 Cycle:     46
  WF centre and spread    1  (  0.000000, -0.000000, -3.333623 )     3.03430506
  WF centre and spread    2  (  0.000000, -3.333622,  0.000000 )     3.03430711
  WF centre and spread    3  ( -3.333622,  0.000000, -0.000001 )     3.03449560
  Sum of centres and spreads ( -3.333621, -3.333622, -3.333623 )     9.10310777
 
     46    -0.263E-07     0.0001461469        9.1031104343       0.17  <-- CONV
        O_D=      0.0000000 O_OD=      0.0315064 O_TOT=      9.1031104 <-- SPRD
 Delta: O_D=  0.3746350E-08 O_OD= -0.3000717E-07 O_TOT= -0.2626082E-07 <-- DLTA
 ------------------------------------------------------------------------------
 Cycle:     47
  WF centre and spread    1  (  0.000000, -0.000000, -3.333623 )     3.03430503
  WF centre and spread    2  (  0.000000, -3.333622,  0.000000 )     3.03430710
  WF centre and spread    3  ( -3.333622,  0.000000, -0.000001 )     3.03449560
  Sum of centres and spreads ( -3.333621, -3.333622, -3.333623 )     9.10310773
 
     47    -0.336E-07     0.0001061415        9.1031104007       0.17  <-- CONV
        O_D=      0.0000000 O_OD=      0.0315064 O_TOT=      9.1031104 <-- SPRD
 Delta: O_D=  0.5063980E-08 O_OD= -0.3866441E-07 O_TOT= -0.3360043E-07 <-- DLTA
 ------------------------------------------------------------------------------
 Cycle:     48
  WF centre and spread    1  (  0.000000, -0.000000, -3.333623 )     3.03430502
  WF centre and spread    2  (  0.000000, -3.333622,  0.000000 )     3.03430708
  WF centre and spread    3  ( -3.333622,  0.000000, -0.000001 )     3.03449559
  Sum of centres and spreads ( -3.333621, -3.333622, -3.333623 )     9.10310769
 
     48    -0.447E-07     0.0001990333        9.1031103561       0.17  <-- CONV
        O_D=      0.0000000 O_OD=      0.0315063 O_TOT=      9.1031104 <-- SPRD
 Delta: O_D= -0.1098803E-07 O_OD= -0.3367539E-07 O_TOT= -0.4466343E-07 <-- DLTA
 ------------------------------------------------------------------------------
 Cycle:     49
  WF centre and spread    1  (  0.000000,  0.000000, -3.333623 )     3.03430503
  WF centre and spread    2  (  0.000000, -3.333623,  0.000000 )     3.03430704
  WF centre and spread    3  ( -3.333622,  0.000000, -0.000001 )     3.03449559
  Sum of centres and spreads ( -3.333621, -3.333622, -3.333623 )     9.10310765
 
     49    -0.341E-07     0.0000934214        9.1031103220       0.17  <-- CONV
        O_D=      0.0000000 O_OD=      0.0315063 O_TOT=      9.1031103 <-- SPRD
 Delta: O_D= -0.2673522E-08 O_OD= -0.3139149E-07 O_TOT= -0.3406501E-07 <-- DLTA
 ------------------------------------------------------------------------------
 Cycle:     50
  WF centre and spread    1  (  0.000000,  0.000000, -3.333623 )     3.03430502
  WF centre and spread    2  (  0.000001, -3.333623,  0.000000 )     3.03430703
  WF centre and spread    3  ( -3.333622,  0.000000, -0.000001 )     3.03449559
  Sum of centres and spreads ( -3.333621, -3.333622, -3.333623 )     9.10310763
 
     50    -0.227E-07     0.0000990331        9.1031102993       0.18  <-- CONV
        O_D=      0.0000000 O_OD=      0.0315063 O_TOT=      9.1031103 <-- SPRD
 Delta: O_D=  0.2099841E-09 O_OD= -0.2291339E-07 O_TOT= -0.2270340E-07 <-- DLTA
 ------------------------------------------------------------------------------
 Cycle:     51
  WF centre and spread    1  (  0.000001,  0.000000, -3.333623 )     3.03430498
  WF centre and spread    2  (  0.000001, -3.333623,  0.000000 )     3.03430702
  WF centre and spread    3  ( -3.333622,  0.000000, -0.000000 )     3.03449558
  Sum of centres and spreads ( -3.333621, -3.333622, -3.333623 )     9.10310758
 
     51    -0.483E-07     0.0001037542        9.1031102510       0.18  <-- CONV
        O_D=      0.0000000 O_OD=      0.0315062 O_TOT=      9.1031103 <-- SPRD
 Delta: O_D=  0.1263477E-08 O_OD= -0.4959561E-07 O_TOT= -0.4833214E-07 <-- DLTA
 ------------------------------------------------------------------------------
 Cycle:     52
  WF centre and spread    1  (  0.000001,  0.000000, -3.333623 )     3.03430494
  WF centre and spread    2  (  0.000001, -3.333623,  0.000000 )     3.03430704
  WF centre and spread    3  ( -3.333622,  0.000000, -0.000000 )     3.03449558
  Sum of centres and spreads ( -3.333621, -3.333622, -3.333623 )     9.10310756
 
     52    -0.248E-07     0.0000859279        9.1031102261       0.18  <-- CONV
        O_D=      0.0000000 O_OD=      0.0315062 O_TOT=      9.1031102 <-- SPRD
 Delta: O_D=  0.1065870E-07 O_OD= -0.3549069E-07 O_TOT= -0.2483199E-07 <-- DLTA
 ------------------------------------------------------------------------------
 Cycle:     53
  WF centre and spread    1  (  0.000001,  0.000000, -3.333623 )     3.03430494
  WF centre and spread    2  (  0.000001, -3.333623,  0.000000 )     3.03430702
  WF centre and spread    3  ( -3.333622,  0.000000, -0.000000 )     3.03449557
  Sum of centres and spreads ( -3.333621, -3.333622, -3.333623 )     9.10310753
 
     53    -0.302E-07     0.0001715480        9.1031101959       0.18  <-- CONV
        O_D=      0.0000000 O_OD=      0.0315062 O_TOT=      9.1031102 <-- SPRD
 Delta: O_D= -0.8695554E-08 O_OD= -0.2151789E-07 O_TOT= -0.3021344E-07 <-- DLTA
 ------------------------------------------------------------------------------
 Cycle:     54
  WF centre and spread    1  (  0.000000,  0.000000, -3.333623 )     3.03430494
  WF centre and spread    2  (  0.000001, -3.333623,  0.000000 )     3.03430699
  WF centre and spread    3  ( -3.333622,  0.000000, -0.000000 )     3.03449557
  Sum of centres and spreads ( -3.333621, -3.333622, -3.333623 )     9.10310750
 
     54    -0.294E-07     0.0000974545        9.1031101666       0.19  <-- CONV
        O_D=      0.0000000 O_OD=      0.0315062 O_TOT=      9.1031102 <-- SPRD
 Delta: O_D= -0.2459974E-08 O_OD= -0.2689444E-07 O_TOT= -0.2935441E-07 <-- DLTA
 ------------------------------------------------------------------------------
 Cycle:     55
  WF centre and spread    1  (  0.000000,  0.000000, -3.333623 )     3.03430494
  WF centre and spread    2  (  0.000001, -3.333623,  0.000000 )     3.03430696
  WF centre and spread    3  ( -3.333622,  0.000000, -0.000001 )     3.03449556
  Sum of centres and spreads ( -3.333621, -3.333622, -3.333623 )     9.10310746
 
     55    -0.389E-07     0.0001126219        9.1031101276       0.19  <-- CONV
        O_D=      0.0000000 O_OD=      0.0315061 O_TOT=      9.1031101 <-- SPRD
 Delta: O_D= -0.9223404E-09 O_OD= -0.3802049E-07 O_TOT= -0.3894283E-07 <-- DLTA
 ------------------------------------------------------------------------------
 Cycle:     56
  WF centre and spread    1  (  0.000000,  0.000000, -3.333623 )     3.03430493
  WF centre and spread    2  (  0.000000, -3.333623,  0.000000 )     3.03430695
  WF centre and spread    3  ( -3.333622,  0.000000, -0.000001 )     3.03449555
  Sum of centres and spreads ( -3.333621, -3.333622, -3.333623 )     9.10310743
 
     56    -0.265E-07     0.0001035328        9.1031101011       0.19  <-- CONV
        O_D=      0.0000000 O_OD=      0.0315061 O_TOT=      9.1031101 <-- SPRD
 Delta: O_D=  0.1942685E-10 O_OD= -0.2650896E-07 O_TOT= -0.2648954E-07 <-- DLTA
 ------------------------------------------------------------------------------
 Cycle:     57
  WF centre and spread    1  (  0.000000, -0.000000, -3.333623 )     3.03430490
  WF centre and spread    2  (  0.000000, -3.333623,  0.000000 )     3.03430695
  WF centre and spread    3  ( -3.333622,  0.000000, -0.000001 )     3.03449555
  Sum of centres and spreads ( -3.333621, -3.333622, -3.333623 )     9.10310741
 
     57    -0.279E-07     0.0000890326        9.1031100732       0.19  <-- CONV
        O_D=      0.0000000 O_OD=      0.0315061 O_TOT=      9.1031101 <-- SPRD
 Delta: O_D=  0.2422399E-08 O_OD= -0.3037186E-07 O_TOT= -0.2794946E-07 <-- DLTA
 ------------------------------------------------------------------------------
 Cycle:     58
  WF centre and spread    1  (  0.000000, -0.000000, -3.333623 )     3.03430486
  WF centre and spread    2  (  0.000000, -3.333622,  0.000000 )     3.03430693
  WF centre and spread    3  ( -3.333622,  0.000000, -0.000001 )     3.03449555
  Sum of centres and spreads ( -3.333621, -3.333622, -3.333623 )     9.10310735
 
     58    -0.609E-07     0.0001163601        9.1031100123       0.19  <-- CONV
        O_D=      0.0000000 O_OD=      0.0315060 O_TOT=      9.1031100 <-- SPRD
 Delta: O_D=  0.1008415E-07 O_OD= -0.7101469E-07 O_TOT= -0.6093054E-07 <-- DLTA
 ------------------------------------------------------------------------------
 Cycle:     59
  WF centre and spread    1  (  0.000000, -0.000000, -3.333623 )     3.03430486
  WF centre and spread    2  (  0.000000, -3.333623,  0.000000 )     3.03430690
  WF centre and spread    3  ( -3.333622,  0.000000, -0.000001 )     3.03449554
  Sum of centres and spreads ( -3.333621, -3.333622, -3.333623 )     9.10310730
 
     59    -0.411E-07     0.0001631380        9.1031099712       0.20  <-- CONV
        O_D=      0.0000000 O_OD=      0.0315060 O_TOT=      9.1031100 <-- SPRD
 Delta: O_D= -0.1065583E-07 O_OD= -0.3043927E-07 O_TOT= -0.4109510E-07 <-- DLTA
 ------------------------------------------------------------------------------
 Cycle:     60
  WF centre and spread    1  (  0.000000,  0.000000, -3.333623 )     3.03430486
  WF centre and spread    2  (  0.000000, -3.333623,  0.000000 )     3.03430688
  WF centre and spread    3  ( -3.333622,  0.000000, -0.000001 )     3.03449554
  Sum of centres and spreads ( -3.333621, -3.333622, -3.333623 )     9.10310728
 
     60    -0.242E-07     0.0001113995        9.1031099470       0.20  <-- CONV
        O_D=      0.0000000 O_OD=      0.0315059 O_TOT=      9.1031099 <-- SPRD
 Delta: O_D= -0.2113283E-08 O_OD= -0.2203775E-07 O_TOT= -0.2415103E-07 <-- DLTA
 ------------------------------------------------------------------------------
 Cycle:     61
  WF centre and spread    1  (  0.000000,  0.000000, -3.333623 )     3.03430486
  WF centre and spread    2  (  0.000001, -3.333623,  0.000000 )     3.03430686
  WF centre and spread    3  ( -3.333622,  0.000000, -0.000001 )     3.03449554
  Sum of centres and spreads ( -3.333621, -3.333622, -3.333623 )     9.10310725
 
     61    -0.249E-07     0.0000966082        9.1031099221       0.20  <-- CONV
        O_D=      0.0000000 O_OD=      0.0315059 O_TOT=      9.1031099 <-- SPRD
 Delta: O_D=  0.9445517E-09 O_OD= -0.2586891E-07 O_TOT= -0.2492436E-07 <-- DLTA
 ------------------------------------------------------------------------------
 Cycle:     62
  WF centre and spread    1  (  0.000000,  0.000000, -3.333623 )     3.03430482
  WF centre and spread    2  (  0.000001, -3.333623,  0.000000 )     3.03430685
  WF centre and spread    3  ( -3.333622,  0.000000, -0.000000 )     3.03449553
  Sum of centres and spreads ( -3.333621, -3.333622, -3.333623 )     9.10310721
 
     62    -0.427E-07     0.0001026409        9.1031098794       0.20  <-- CONV
        O_D=      0.0000000 O_OD=      0.0315059 O_TOT=      9.1031099 <-- SPRD
 Delta: O_D=  0.4940621E-09 O_OD= -0.4322057E-07 O_TOT= -0.4272651E-07 <-- DLTA
 ------------------------------------------------------------------------------
 Cycle:     63
  WF centre and spread    1  (  0.000001,  0.000000, -3.333623 )     3.03430478
  WF centre and spread    2  (  0.000001, -3.333623,  0.000000 )     3.03430687
  WF centre and spread    3  ( -3.333622,  0.000000, -0.000000 )     3.03449553
  Sum of centres and spreads ( -3.333621, -3.333622, -3.333623 )     9.10310718
 
     63    -0.338E-07     0.0001133877        9.1031098456       0.21  <-- CONV
        O_D=      0.0000000 O_OD=      0.0315058 O_TOT=      9.1031098 <-- SPRD
 Delta: O_D=  0.2679812E-08 O_OD= -0.3648791E-07 O_TOT= -0.3380810E-07 <-- DLTA
 ------------------------------------------------------------------------------
 Cycle:     64
  WF centre and spread    1  (  0.000001,  0.000000, -3.333623 )     3.03430475
  WF centre and spread    2  (  0.000001, -3.333623,  0.000000 )     3.03430687
  WF centre and spread    3  ( -3.333622,  0.000000, -0.000000 )     3.03449552
  Sum of centres and spreads ( -3.333621, -3.333622, -3.333623 )     9.10310714
 
     64    -0.360E-07     0.0001100729        9.1031098095       0.21  <-- CONV
        O_D=      0.0000000 O_OD=      0.0315058 O_TOT=      9.1031098 <-- SPRD
 Delta: O_D=  0.6376679E-08 O_OD= -0.4239363E-07 O_TOT= -0.3601695E-07 <-- DLTA
 ------------------------------------------------------------------------------
 Cycle:     65
  WF centre and spread    1  (  0.000001,  0.000000, -3.333623 )     3.03430475
  WF centre and spread    2  (  0.000001, -3.333623,  0.000000 )     3.03430685
  WF centre and spread    3  ( -3.333622,  0.000000, -0.000000 )     3.03449552
  Sum of centres and spreads ( -3.333621, -3.333622, -3.333623 )     9.10310711
 
     65    -0.302E-07     0.0001577163        9.1031097794       0.21  <-- CONV
        O_D=      0.0000000 O_OD=      0.0315058 O_TOT=      9.1031098 <-- SPRD
 Delta: O_D= -0.6935954E-08 O_OD= -0.2322846E-07 O_TOT= -0.3016442E-07 <-- DLTA
 ------------------------------------------------------------------------------
 Cycle:     66
  WF centre and spread    1  (  0.000000,  0.000000, -3.333623 )     3.03430476
  WF centre and spread    2  (  0.000001, -3.333623,  0.000000 )     3.03430681
  WF centre and spread    3  ( -3.333622,  0.000000, -0.000000 )     3.03449551
  Sum of centres and spreads ( -3.333621, -3.333622, -3.333623 )     9.10310708
 
     66    -0.311E-07     0.0001063206        9.1031097482       0.21  <-- CONV
        O_D=      0.0000000 O_OD=      0.0315057 O_TOT=      9.1031097 <-- SPRD
 Delta: O_D= -0.2615390E-08 O_OD= -0.2850938E-07 O_TOT= -0.3112477E-07 <-- DLTA
 ------------------------------------------------------------------------------
 Cycle:     67
  WF centre and spread    1  (  0.000000,  0.000000, -3.333623 )     3.03430476
  WF centre and spread    2  (  0.000001, -3.333623,  0.000000 )     3.03430677
  WF centre and spread    3  ( -3.333622,  0.000000, -0.000001 )     3.03449551
  Sum of centres and spreads ( -3.333621, -3.333622, -3.333623 )     9.10310704
 
     67    -0.373E-07     0.0001032639        9.1031097110       0.22  <-- CONV
        O_D=      0.0000000 O_OD=      0.0315057 O_TOT=      9.1031097 <-- SPRD
 Delta: O_D=  0.4565713E-09 O_OD= -0.3773900E-07 O_TOT= -0.3728243E-07 <-- DLTA
 ------------------------------------------------------------------------------
 Cycle:     68
  WF centre and spread    1  (  0.000000,  0.000000, -3.333623 )     3.03430475
  WF centre and spread    2  (  0.000000, -3.333623,  0.000000 )     3.03430675
  WF centre and spread    3  ( -3.333622,  0.000000, -0.000001 )     3.03449551
  Sum of centres and spreads ( -3.333621, -3.333622, -3.333623 )     9.10310701
 
     68    -0.291E-07     0.0001172549        9.1031096819       0.22  <-- CONV
        O_D=      0.0000000 O_OD=      0.0315057 O_TOT=      9.1031097 <-- SPRD
 Delta: O_D= -0.4019498E-09 O_OD= -0.2870950E-07 O_TOT= -0.2911145E-07 <-- DLTA
 ------------------------------------------------------------------------------
 Cycle:     69
  WF centre and spread    1  (  0.000000, -0.000000, -3.333623 )     3.03430473
  WF centre and spread    2  (  0.000000, -3.333622,  0.000000 )     3.03430675
  WF centre and spread    3  ( -3.333622,  0.000000, -0.000001 )     3.03449551
  Sum of centres and spreads ( -3.333621, -3.333622, -3.333623 )     9.10310699
 
     69    -0.263E-07     0.0000997731        9.1031096556       0.22  <-- CONV
        O_D=      0.0000000 O_OD=      0.0315056 O_TOT=      9.1031097 <-- SPRD
 Delta: O_D=  0.1311906E-08 O_OD= -0.2758529E-07 O_TOT= -0.2627338E-07 <-- DLTA
 ------------------------------------------------------------------------------
 Cycle:     70
  WF centre and spread    1  (  0.000000, -0.000000, -3.333623 )     3.03430469
  WF centre and spread    2  (  0.000000, -3.333622,  0.000000 )     3.03430675
  WF centre and spread    3  ( -3.333622,  0.000000, -0.000001 )     3.03449551
  Sum of centres and spreads ( -3.333621, -3.333622, -3.333623 )     9.10310695
 
     70    -0.407E-07     0.0001067380        9.1031096149       0.22  <-- CONV
        O_D=      0.0000000 O_OD=      0.0315056 O_TOT=      9.1031096 <-- SPRD
 Delta: O_D=  0.1000696E-07 O_OD= -0.5070140E-07 O_TOT= -0.4069443E-07 <-- DLTA
 ------------------------------------------------------------------------------
 Cycle:     71
  WF centre and spread    1  (  0.000000, -0.000000, -3.333623 )     3.03430469
  WF centre and spread    2  (  0.000000, -3.333622,  0.000000 )     3.03430672
  WF centre and spread    3  ( -3.333622,  0.000000, -0.000001 )     3.03449550
  Sum of centres and spreads ( -3.333621, -3.333622, -3.333623 )     9.10310691
 
     71    -0.423E-07     0.0001706295        9.1031095726       0.22  <-- CONV
        O_D=      0.0000000 O_OD=      0.0315056 O_TOT=      9.1031096 <-- SPRD
 Delta: O_D= -0.1031125E-07 O_OD= -0.3195185E-07 O_TOT= -0.4226310E-07 <-- DLTA
 ------------------------------------------------------------------------------
 Cycle:     72
  WF centre and spread    1  (  0.000000,  0.000000, -3.333623 )     3.03430469
  WF centre and spread    2  (  0.000000, -3.333623,  0.000000 )     3.03430670
  WF centre and spread    3  ( -3.333622,  0.000000, -0.000001 )     3.03449549
  Sum of centres and spreads ( -3.333621, -3.333622, -3.333623 )     9.10310688
 
     72    -0.274E-07     0.0001075538        9.1031095452       0.23  <-- CONV
        O_D=      0.0000000 O_OD=      0.0315055 O_TOT=      9.1031095 <-- SPRD
 Delta: O_D= -0.2339563E-08 O_OD= -0.2505391E-07 O_TOT= -0.2739348E-07 <-- DLTA
 ------------------------------------------------------------------------------
 Cycle:     73
  WF centre and spread    1  (  0.000000,  0.000000, -3.333623 )     3.03430468
  WF centre and spread    2  (  0.000001, -3.333623,  0.000000 )     3.03430668
  WF centre and spread    3  ( -3.333622,  0.000000, -0.000001 )     3.03449549
  Sum of centres and spreads ( -3.333621, -3.333622, -3.333623 )     9.10310685
 
     73    -0.290E-07     0.0001004228        9.1031095162       0.23  <-- CONV
        O_D=      0.0000000 O_OD=      0.0315055 O_TOT=      9.1031095 <-- SPRD
 Delta: O_D=  0.2264703E-10 O_OD= -0.2900705E-07 O_TOT= -0.2898440E-07 <-- DLTA
 ------------------------------------------------------------------------------
 Cycle:     74
  WF centre and spread    1  (  0.000000,  0.000000, -3.333623 )     3.03430465
  WF centre and spread    2  (  0.000001, -3.333623,  0.000000 )     3.03430668
  WF centre and spread    3  ( -3.333622,  0.000000, -0.000000 )     3.03449548
  Sum of centres and spreads ( -3.333621, -3.333622, -3.333623 )     9.10310681
 
     74    -0.362E-07     0.0001016353        9.1031094800       0.23  <-- CONV
        O_D=      0.0000000 O_OD=      0.0315055 O_TOT=      9.1031095 <-- SPRD
 Delta: O_D= -0.4757509E-09 O_OD= -0.3575567E-07 O_TOT= -0.3623142E-07 <-- DLTA
 ------------------------------------------------------------------------------
 Cycle:     75
  WF centre and spread    1  (  0.000001,  0.000000, -3.333623 )     3.03430461
  WF centre and spread    2  (  0.000001, -3.333623,  0.000000 )     3.03430670
  WF centre and spread    3  ( -3.333622,  0.000000, -0.000000 )     3.03449547
  Sum of centres and spreads ( -3.333621, -3.333622, -3.333623 )     9.10310678
 
     75    -0.339E-07     0.0000918093        9.1031094462       0.23  <-- CONV
        O_D=      0.0000000 O_OD=      0.0315054 O_TOT=      9.1031094 <-- SPRD
 Delta: O_D=  0.1977879E-08 O_OD= -0.3583571E-07 O_TOT= -0.3385783E-07 <-- DLTA
 ------------------------------------------------------------------------------
 Cycle:     76
  WF centre and spread    1  (  0.000001,  0.000000, -3.333623 )     3.03430457
  WF centre and spread    2  (  0.000001, -3.333623,  0.000000 )     3.03430670
  WF centre and spread    3  ( -3.333622,  0.000000, -0.000000 )     3.03449546
  Sum of centres and spreads ( -3.333621, -3.333622, -3.333623 )     9.10310674
 
     76    -0.427E-07     0.0000872470        9.1031094035       0.23  <-- CONV
        O_D=      0.0000000 O_OD=      0.0315054 O_TOT=      9.1031094 <-- SPRD
 Delta: O_D=  0.1146976E-07 O_OD= -0.5413369E-07 O_TOT= -0.4266393E-07 <-- DLTA
 ------------------------------------------------------------------------------
 Cycle:     77
  WF centre and spread    1  (  0.000001,  0.000000, -3.333623 )     3.03430457
  WF centre and spread    2  (  0.000001, -3.333623,  0.000000 )     3.03430668
  WF centre and spread    3  ( -3.333622,  0.000000, -0.000000 )     3.03449546
  Sum of centres and spreads ( -3.333621, -3.333622, -3.333623 )     9.10310671
 
     77    -0.291E-07     0.0001777642        9.1031093743       0.24  <-- CONV
        O_D=      0.0000000 O_OD=      0.0315054 O_TOT=      9.1031094 <-- SPRD
 Delta: O_D= -0.1116463E-07 O_OD= -0.1797940E-07 O_TOT= -0.2914403E-07 <-- DLTA
 ------------------------------------------------------------------------------
 Cycle:     78
  WF centre and spread    1  (  0.000000,  0.000000, -3.333623 )     3.03430459
  WF centre and spread    2  (  0.000001, -3.333623,  0.000000 )     3.03430662
  WF centre and spread    3  ( -3.333622,  0.000000, -0.000000 )     3.03449546
  Sum of centres and spreads ( -3.333621, -3.333622, -3.333623 )     9.10310668
 
     78    -0.289E-07     0.0000896042        9.1031093455       0.24  <-- CONV
        O_D=      0.0000000 O_OD=      0.0315053 O_TOT=      9.1031093 <-- SPRD
 Delta: O_D= -0.1074026E-08 O_OD= -0.2781258E-07 O_TOT= -0.2888661E-07 <-- DLTA
 ------------------------------------------------------------------------------
 Cycle:     79
  WF centre and spread    1  (  0.000000,  0.000000, -3.333623 )     3.03430460
  WF centre and spread    2  (  0.000001, -3.333623,  0.000000 )     3.03430658
  WF centre and spread    3  ( -3.333622,  0.000000, -0.000001 )     3.03449547
  Sum of centres and spreads ( -3.333621, -3.333622, -3.333623 )     9.10310665
 
     79    -0.302E-07     0.0001071282        9.1031093153       0.24  <-- CONV
        O_D=      0.0000000 O_OD=      0.0315053 O_TOT=      9.1031093 <-- SPRD
 Delta: O_D=  0.2748714E-08 O_OD= -0.3293073E-07 O_TOT= -0.3018202E-07 <-- DLTA
 ------------------------------------------------------------------------------
 Cycle:     80
  WF centre and spread    1  (  0.000000, -0.000000, -3.333623 )     3.03430459
  WF centre and spread    2  (  0.000000, -3.333623,  0.000000 )     3.03430656
  WF centre and spread    3  ( -3.333622,  0.000000, -0.000001 )     3.03449547
  Sum of centres and spreads ( -3.333621, -3.333622, -3.333623 )     9.10310661
 
     80    -0.349E-07     0.0001273970        9.1031092804       0.24  <-- CONV
        O_D=      0.0000000 O_OD=      0.0315053 O_TOT=      9.1031093 <-- SPRD
 Delta: O_D=  0.1919745E-09 O_OD= -0.3504600E-07 O_TOT= -0.3485402E-07 <-- DLTA
 ------------------------------------------------------------------------------
 Cycle:     81
  WF centre and spread    1  (  0.000000, -0.000000, -3.333623 )     3.03430455
  WF centre and spread    2  (  0.000000, -3.333622,  0.000000 )     3.03430656
  WF centre and spread    3  ( -3.333622,  0.000000, -0.000001 )     3.03449546
  Sum of centres and spreads ( -3.333621, -3.333622, -3.333623 )     9.10310658
 
     81    -0.354E-07     0.0001197125        9.1031092451       0.24  <-- CONV
        O_D=      0.0000000 O_OD=      0.0315052 O_TOT=      9.1031092 <-- SPRD
 Delta: O_D=  0.3712511E-09 O_OD= -0.3574227E-07 O_TOT= -0.3537101E-07 <-- DLTA
 ------------------------------------------------------------------------------
 Cycle:     82
  WF centre and spread    1  (  0.000000, -0.000000, -3.333623 )     3.03430451
  WF centre and spread    2  (  0.000000, -3.333622,  0.000000 )     3.03430657
  WF centre and spread    3  ( -3.333622,  0.000000, -0.000001 )     3.03449545
  Sum of centres and spreads ( -3.333621, -3.333622, -3.333623 )     9.10310653
 
     82    -0.505E-07     0.0001061487        9.1031091946       0.25  <-- CONV
        O_D=      0.0000000 O_OD=      0.0315052 O_TOT=      9.1031092 <-- SPRD
 Delta: O_D=  0.7863465E-08 O_OD= -0.5835958E-07 O_TOT= -0.5049612E-07 <-- DLTA
 ------------------------------------------------------------------------------
 Cycle:     83
  WF centre and spread    1  (  0.000000, -0.000000, -3.333623 )     3.03430450
  WF centre and spread    2  (  0.000000, -3.333622,  0.000000 )     3.03430654
  WF centre and spread    3  ( -3.333622,  0.000000, -0.000001 )     3.03449544
  Sum of centres and spreads ( -3.333621, -3.333622, -3.333623 )     9.10310648
 
     83    -0.462E-07     0.0001689535        9.1031091484       0.25  <-- CONV
        O_D=      0.0000000 O_OD=      0.0315051 O_TOT=      9.1031091 <-- SPRD
 Delta: O_D= -0.9690209E-08 O_OD= -0.3649304E-07 O_TOT= -0.4618325E-07 <-- DLTA
 ------------------------------------------------------------------------------
 Cycle:     84
  WF centre and spread    1  (  0.000000,  0.000000, -3.333623 )     3.03430451
  WF centre and spread    2  (  0.000000, -3.333623,  0.000000 )     3.03430650
  WF centre and spread    3  ( -3.333622,  0.000000, -0.000001 )     3.03449544
  Sum of centres and spreads ( -3.333621, -3.333622, -3.333623 )     9.10310645
 
     84    -0.293E-07     0.0001044027        9.1031091190       0.25  <-- CONV
        O_D=      0.0000000 O_OD=      0.0315051 O_TOT=      9.1031091 <-- SPRD
 Delta: O_D= -0.1864089E-08 O_OD= -0.2748556E-07 O_TOT= -0.2934965E-07 <-- DLTA
 ------------------------------------------------------------------------------
 Cycle:     85
  WF centre and spread    1  (  0.000000,  0.000000, -3.333623 )     3.03430450
  WF centre and spread    2  (  0.000001, -3.333623,  0.000000 )     3.03430648
  WF centre and spread    3  ( -3.333622,  0.000000, -0.000001 )     3.03449544
  Sum of centres and spreads ( -3.333621, -3.333622, -3.333623 )     9.10310642
 
     85    -0.300E-07     0.0001128040        9.1031090890       0.25  <-- CONV
        O_D=      0.0000000 O_OD=      0.0315051 O_TOT=      9.1031091 <-- SPRD
 Delta: O_D= -0.1797342E-09 O_OD= -0.2985728E-07 O_TOT= -0.3003702E-07 <-- DLTA
 ------------------------------------------------------------------------------
 Cycle:     86
  WF centre and spread    1  (  0.000000,  0.000000, -3.333623 )     3.03430447
  WF centre and spread    2  (  0.000001, -3.333623,  0.000000 )     3.03430649
  WF centre and spread    3  ( -3.333622,  0.000000, -0.000000 )     3.03449543
  Sum of centres and spreads ( -3.333621, -3.333622, -3.333623 )     9.10310639
 
     86    -0.317E-07     0.0001044721        9.1031090573       0.26  <-- CONV
        O_D=      0.0000000 O_OD=      0.0315050 O_TOT=      9.1031091 <-- SPRD
 Delta: O_D= -0.1178822E-08 O_OD= -0.3054298E-07 O_TOT= -0.3172180E-07 <-- DLTA
 ------------------------------------------------------------------------------
 Cycle:     87
  WF centre and spread    1  (  0.000001,  0.000000, -3.333623 )     3.03430442
  WF centre and spread    2  (  0.000001, -3.333623,  0.000000 )     3.03430652
  WF centre and spread    3  ( -3.333622,  0.000000, -0.000000 )     3.03449542
  Sum of centres and spreads ( -3.333621, -3.333622, -3.333623 )     9.10310636
 
     87    -0.332E-07     0.0000925376        9.1031090241       0.26  <-- CONV
        O_D=      0.0000000 O_OD=      0.0315050 O_TOT=      9.1031090 <-- SPRD
 Delta: O_D=  0.1104910E-08 O_OD= -0.3426805E-07 O_TOT= -0.3316314E-07 <-- DLTA
 ------------------------------------------------------------------------------
 Cycle:     88
  WF centre and spread    1  (  0.000001,  0.000000, -3.333623 )     3.03430438
  WF centre and spread    2  (  0.000001, -3.333623,  0.000000 )     3.03430652
  WF centre and spread    3  ( -3.333622,  0.000000, -0.000000 )     3.03449541
  Sum of centres and spreads ( -3.333621, -3.333622, -3.333623 )     9.10310632
 
     88    -0.370E-07     0.0000824419        9.1031089871       0.26  <-- CONV
        O_D=      0.0000000 O_OD=      0.0315050 O_TOT=      9.1031090 <-- SPRD
 Delta: O_D=  0.4880640E-08 O_OD= -0.4186851E-07 O_TOT= -0.3698787E-07 <-- DLTA
 ------------------------------------------------------------------------------
 Cycle:     89
  WF centre and spread    1  (  0.000001,  0.000000, -3.333623 )     3.03430438
  WF centre and spread    2  (  0.000001, -3.333623,  0.000000 )     3.03430650
  WF centre and spread    3  ( -3.333622,  0.000000, -0.000000 )     3.03449541
  Sum of centres and spreads ( -3.333621, -3.333622, -3.333623 )     9.10310629
 
     89    -0.331E-07     0.0001909422        9.1031089540       0.26  <-- CONV
        O_D=      0.0000000 O_OD=      0.0315049 O_TOT=      9.1031090 <-- SPRD
 Delta: O_D= -0.4931389E-08 O_OD= -0.2816556E-07 O_TOT= -0.3309694E-07 <-- DLTA
 ------------------------------------------------------------------------------
 Cycle:     90
  WF centre and spread    1  (  0.000000,  0.000000, -3.333623 )     3.03430441
  WF centre and spread    2  (  0.000001, -3.333623,  0.000000 )     3.03430643
  WF centre and spread    3  ( -3.333622,  0.000000, -0.000000 )     3.03449541
  Sum of centres and spreads ( -3.333621, -3.333622, -3.333623 )     9.10310626
 
     90    -0.255E-07     0.0000864453        9.1031089285       0.26  <-- CONV
        O_D=      0.0000000 O_OD=      0.0315049 O_TOT=      9.1031089 <-- SPRD
 Delta: O_D= -0.4074601E-09 O_OD= -0.2507698E-07 O_TOT= -0.2548444E-07 <-- DLTA
 ------------------------------------------------------------------------------
 Cycle:     91
  WF centre and spread    1  (  0.000000,  0.000000, -3.333623 )     3.03430443
  WF centre and spread    2  (  0.000001, -3.333623,  0.000000 )     3.03430639
  WF centre and spread    3  ( -3.333622,  0.000000, -0.000001 )     3.03449542
  Sum of centres and spreads ( -3.333621, -3.333622, -3.333623 )     9.10310623
 
     91    -0.279E-07     0.0001053018        9.1031089007       0.27  <-- CONV
        O_D=      0.0000000 O_OD=      0.0315049 O_TOT=      9.1031089 <-- SPRD
 Delta: O_D=  0.2771562E-08 O_OD= -0.3062935E-07 O_TOT= -0.2785779E-07 <-- DLTA
 ------------------------------------------------------------------------------
 Cycle:     92
  WF centre and spread    1  (  0.000000,  0.000000, -3.333623 )     3.03430440
  WF centre and spread    2  (  0.000000, -3.333623,  0.000000 )     3.03430638
  WF centre and spread    3  ( -3.333622,  0.000000, -0.000001 )     3.03449541
  Sum of centres and spreads ( -3.333621, -3.333622, -3.333623 )     9.10310619
 
     92    -0.388E-07     0.0001187408        9.1031088619       0.27  <-- CONV
        O_D=      0.0000000 O_OD=      0.0315048 O_TOT=      9.1031089 <-- SPRD
 Delta: O_D=  0.3994003E-09 O_OD= -0.3916165E-07 O_TOT= -0.3876225E-07 <-- DLTA
 ------------------------------------------------------------------------------
 Cycle:     93
  WF centre and spread    1  (  0.000000, -0.000000, -3.333623 )     3.03430435
  WF centre and spread    2  (  0.000000, -3.333622,  0.000000 )     3.03430639
  WF centre and spread    3  ( -3.333622,  0.000000, -0.000001 )     3.03449540
  Sum of centres and spreads ( -3.333621, -3.333622, -3.333623 )     9.10310615
 
     93    -0.440E-07     0.0001212777        9.1031088180       0.27  <-- CONV
        O_D=      0.0000000 O_OD=      0.0315048 O_TOT=      9.1031088 <-- SPRD
 Delta: O_D=  0.3566318E-08 O_OD= -0.4752908E-07 O_TOT= -0.4396276E-07 <-- DLTA
 ------------------------------------------------------------------------------
 Cycle:     94
  WF centre and spread    1  (  0.000000, -0.000000, -3.333623 )     3.03430431
  WF centre and spread    2  (  0.000000, -3.333622,  0.000000 )     3.03430640
  WF centre and spread    3  ( -3.333621,  0.000000, -0.000001 )     3.03449540
  Sum of centres and spreads ( -3.333621, -3.333622, -3.333623 )     9.10310611
 
     94    -0.429E-07     0.0001309041        9.1031087750       0.27  <-- CONV
        O_D=      0.0000000 O_OD=      0.0315047 O_TOT=      9.1031088 <-- SPRD
 Delta: O_D=  0.1410808E-07 O_OD= -0.5703022E-07 O_TOT= -0.4292215E-07 <-- DLTA
 ------------------------------------------------------------------------------
 Cycle:     95
  WF centre and spread    1  (  0.000000, -0.000000, -3.333623 )     3.03430430
  WF centre and spread    2  (  0.000000, -3.333622,  0.000000 )     3.03430636
  WF centre and spread    3  ( -3.333622,  0.000000, -0.000001 )     3.03449539
  Sum of centres and spreads ( -3.333621, -3.333622, -3.333623 )     9.10310605
 
     95    -0.593E-07     0.0002115996        9.1031087158       0.27  <-- CONV
        O_D=      0.0000000 O_OD=      0.0315047 O_TOT=      9.1031087 <-- SPRD
 Delta: O_D= -0.1159483E-07 O_OD= -0.4768035E-07 O_TOT= -0.5927518E-07 <-- DLTA
 ------------------------------------------------------------------------------
 Cycle:     96
  WF centre and spread    1  (  0.000000, -0.000000, -3.333623 )     3.03430431
  WF centre and spread    2  (  0.000000, -3.333623,  0.000000 )     3.03430631
  WF centre and spread    3  ( -3.333622,  0.000000, -0.000001 )     3.03449539
  Sum of centres and spreads ( -3.333621, -3.333622, -3.333623 )     9.10310601
 
     96    -0.381E-07     0.0001417553        9.1031086776       0.28  <-- CONV
        O_D=      0.0000000 O_OD=      0.0315047 O_TOT=      9.1031087 <-- SPRD
 Delta: O_D= -0.6985373E-08 O_OD= -0.3113434E-07 O_TOT= -0.3811971E-07 <-- DLTA
 ------------------------------------------------------------------------------
 Cycle:     97
  WF centre and spread    1  (  0.000000,  0.000000, -3.333623 )     3.03430431
  WF centre and spread    2  (  0.000001, -3.333623,  0.000000 )     3.03430628
  WF centre and spread    3  ( -3.333622,  0.000000, -0.000001 )     3.03449539
  Sum of centres and spreads ( -3.333621, -3.333622, -3.333623 )     9.10310598
 
[...]
  Sum of centres and spreads ( -3.333621, -3.333622, -3.333623 )     9.10309308
 
    473    -0.630E-07     0.0001944069        9.1030957445       1.00  <-- CONV
        O_D=      0.0000000 O_OD=      0.0314917 O_TOT=      9.1030957 <-- SPRD
 Delta: O_D= -0.2363843E-07 O_OD= -0.3936005E-07 O_TOT= -0.6299848E-07 <-- DLTA
 ------------------------------------------------------------------------------
 Cycle:    474
  WF centre and spread    1  (  0.000000,  0.000000, -3.333623 )     3.03429865
  WF centre and spread    2  (  0.000001, -3.333623,  0.000000 )     3.03430065
  WF centre and spread    3  ( -3.333622,  0.000000, -0.000001 )     3.03449375
  Sum of centres and spreads ( -3.333621, -3.333622, -3.333623 )     9.10309305
 
    474    -0.300E-07     0.0001110494        9.1030957145       1.00  <-- CONV
        O_D=      0.0000000 O_OD=      0.0314917 O_TOT=      9.1030957 <-- SPRD
 Delta: O_D= -0.1386094E-07 O_OD= -0.1613297E-07 O_TOT= -0.2999391E-07 <-- DLTA
 ------------------------------------------------------------------------------
 Cycle:    475
  WF centre and spread    1  (  0.000000,  0.000000, -3.333623 )     3.03429863
  WF centre and spread    2  (  0.000001, -3.333623,  0.000000 )     3.03430066
  WF centre and spread    3  ( -3.333622,  0.000000, -0.000001 )     3.03449374
  Sum of centres and spreads ( -3.333621, -3.333622, -3.333623 )     9.10309303
 
    475    -0.153E-07     0.0000850547        9.1030956992       1.01  <-- CONV
        O_D=      0.0000000 O_OD=      0.0314917 O_TOT=      9.1030957 <-- SPRD
 Delta: O_D=  0.4128322E-08 O_OD= -0.1943676E-07 O_TOT= -0.1530844E-07 <-- DLTA
 ------------------------------------------------------------------------------
 Cycle:    476
  WF centre and spread    1  (  0.000000,  0.000000, -3.333623 )     3.03429861
  WF centre and spread    2  (  0.000001, -3.333623,  0.000000 )     3.03430069
  WF centre and spread    3  ( -3.333622,  0.000000, -0.000001 )     3.03449372
  Sum of centres and spreads ( -3.333621, -3.333622, -3.333623 )     9.10309301
 
    476    -0.223E-07     0.0001124663        9.1030956769       1.01  <-- CONV
        O_D=      0.0000000 O_OD=      0.0314917 O_TOT=      9.1030957 <-- SPRD
 Delta: O_D=  0.1356870E-07 O_OD= -0.3590514E-07 O_TOT= -0.2233644E-07 <-- DLTA
 ------------------------------------------------------------------------------
 Cycle:    477
  WF centre and spread    1  (  0.000000,  0.000000, -3.333623 )     3.03429858
  WF centre and spread    2  (  0.000001, -3.333623,  0.000000 )     3.03430068
  WF centre and spread    3  ( -3.333622,  0.000000, -0.000001 )     3.03449371
  Sum of centres and spreads ( -3.333621, -3.333622, -3.333623 )     9.10309298
 
    477    -0.307E-07     0.0001129965        9.1030956462       1.01  <-- CONV
        O_D=      0.0000000 O_OD=      0.0314916 O_TOT=      9.1030956 <-- SPRD
 Delta: O_D=  0.1233123E-07 O_OD= -0.4300580E-07 O_TOT= -0.3067457E-07 <-- DLTA
 ------------------------------------------------------------------------------
 Cycle:    478
  WF centre and spread    1  (  0.000000,  0.000000, -3.333623 )     3.03429858
  WF centre and spread    2  (  0.000001, -3.333623,  0.000000 )     3.03430066
  WF centre and spread    3  ( -3.333622,  0.000000, -0.000001 )     3.03449371
  Sum of centres and spreads ( -3.333621, -3.333622, -3.333623 )     9.10309295
 
    478    -0.311E-07     0.0001404428        9.1030956151       1.01  <-- CONV
        O_D=      0.0000000 O_OD=      0.0314916 O_TOT=      9.1030956 <-- SPRD
 Delta: O_D= -0.1409529E-07 O_OD= -0.1703492E-07 O_TOT= -0.3113021E-07 <-- DLTA
 ------------------------------------------------------------------------------
 Cycle:    479
  WF centre and spread    1  (  0.000000,  0.000000, -3.333623 )     3.03429858
  WF centre and spread    2  (  0.000001, -3.333623,  0.000000 )     3.03430061
  WF centre and spread    3  ( -3.333622,  0.000000, -0.000001 )     3.03449373
  Sum of centres and spreads ( -3.333621, -3.333622, -3.333623 )     9.10309291
 
    479    -0.333E-07     0.0001123403        9.1030955817       1.01  <-- CONV
        O_D=      0.0000000 O_OD=      0.0314916 O_TOT=      9.1030956 <-- SPRD
 Delta: O_D= -0.1573303E-07 O_OD= -0.1760754E-07 O_TOT= -0.3334057E-07 <-- DLTA
 ------------------------------------------------------------------------------
 Cycle:    480
  WF centre and spread    1  (  0.000000,  0.000000, -3.333623 )     3.03429858
  WF centre and spread    2  (  0.000001, -3.333623,  0.000000 )     3.03430058
  WF centre and spread    3  ( -3.333622,  0.000000, -0.000001 )     3.03449374
  Sum of centres and spreads ( -3.333621, -3.333622, -3.333623 )     9.10309290
 
    480    -0.168E-07     0.0000900041        9.1030955649       1.02  <-- CONV
        O_D=      0.0000000 O_OD=      0.0314916 O_TOT=      9.1030956 <-- SPRD
 Delta: O_D=  0.1308979E-08 O_OD= -0.1813140E-07 O_TOT= -0.1682243E-07 <-- DLTA
 ------------------------------------------------------------------------------
 Cycle:    481
  WF centre and spread    1  (  0.000000,  0.000000, -3.333623 )     3.03429858
  WF centre and spread    2  (  0.000001, -3.333623,  0.000000 )     3.03430053
  WF centre and spread    3  ( -3.333622,  0.000000, -0.000001 )     3.03449377
  Sum of centres and spreads ( -3.333621, -3.333622, -3.333623 )     9.10309288
 
    481    -0.219E-07     0.0000897818        9.1030955430       1.02  <-- CONV
        O_D=      0.0000000 O_OD=      0.0314915 O_TOT=      9.1030955 <-- SPRD
 Delta: O_D=  0.2460906E-07 O_OD= -0.4651623E-07 O_TOT= -0.2190717E-07 <-- DLTA
 ------------------------------------------------------------------------------
 Cycle:    482
  WF centre and spread    1  (  0.000000,  0.000000, -3.333623 )     3.03429856
  WF centre and spread    2  (  0.000001, -3.333623,  0.000000 )     3.03430047
  WF centre and spread    3  ( -3.333622,  0.000000, -0.000001 )     3.03449379
  Sum of centres and spreads ( -3.333621, -3.333622, -3.333623 )     9.10309282
 
    482    -0.520E-07     0.0001388547        9.1030954910       1.02  <-- CONV
        O_D=      0.0000001 O_OD=      0.0314914 O_TOT=      9.1030955 <-- SPRD
 Delta: O_D=  0.3051357E-07 O_OD= -0.8246554E-07 O_TOT= -0.5195198E-07 <-- DLTA
 ------------------------------------------------------------------------------
 Cycle:    483
  WF centre and spread    1  (  0.000000,  0.000000, -3.333623 )     3.03429843
  WF centre and spread    2  (  0.000001, -3.333623,  0.000000 )     3.03430032
  WF centre and spread    3  ( -3.333622,  0.000000, -0.000001 )     3.03449379
  Sum of centres and spreads ( -3.333621, -3.333623, -3.333623 )     9.10309254
 
    483    -0.281E-06     0.0001946530        9.1030952102       1.02  <-- CONV
        O_D=      0.0000001 O_OD=      0.0314911 O_TOT=      9.1030952 <-- SPRD
 Delta: O_D=  0.6801605E-07 O_OD= -0.3489043E-06 O_TOT= -0.2808882E-06 <-- DLTA
 ------------------------------------------------------------------------------
 Cycle:    484
  WF centre and spread    1  (  0.000000,  0.000000, -3.333623 )     3.03429835
  WF centre and spread    2  (  0.000001, -3.333623,  0.000000 )     3.03430026
  WF centre and spread    3  ( -3.333622,  0.000000, -0.000001 )     3.03449371
  Sum of centres and spreads ( -3.333621, -3.333622, -3.333623 )     9.10309233
 
    484    -0.218E-06     0.0004286711        9.1030949924       1.02  <-- CONV
        O_D=      0.0000000 O_OD=      0.0314909 O_TOT=      9.1030950 <-- SPRD
 Delta: O_D= -0.7813900E-07 O_OD= -0.1395950E-06 O_TOT= -0.2177340E-06 <-- DLTA
 ------------------------------------------------------------------------------
 Cycle:    485
  WF centre and spread    1  (  0.000000,  0.000000, -3.333623 )     3.03429832
  WF centre and spread    2  (  0.000001, -3.333623,  0.000000 )     3.03430027
  WF centre and spread    3  ( -3.333622,  0.000000, -0.000001 )     3.03449368
  Sum of centres and spreads ( -3.333621, -3.333622, -3.333623 )     9.10309228
 
    485    -0.497E-07     0.0001699687        9.1030949427       1.03  <-- CONV
        O_D=      0.0000000 O_OD=      0.0314909 O_TOT=      9.1030949 <-- SPRD
 Delta: O_D= -0.2553782E-07 O_OD= -0.2420906E-07 O_TOT= -0.4974688E-07 <-- DLTA
 ------------------------------------------------------------------------------
 Cycle:    486
  WF centre and spread    1  (  0.000000,  0.000000, -3.333623 )     3.03429829
  WF centre and spread    2  (  0.000001, -3.333623,  0.000000 )     3.03430029
  WF centre and spread    3  ( -3.333622,  0.000000, -0.000001 )     3.03449365
  Sum of centres and spreads ( -3.333621, -3.333622, -3.333623 )     9.10309224
 
    486    -0.394E-07     0.0001365260        9.1030949033       1.03  <-- CONV
        O_D=      0.0000000 O_OD=      0.0314909 O_TOT=      9.1030949 <-- SPRD
 Delta: O_D= -0.2103245E-07 O_OD= -0.1837905E-07 O_TOT= -0.3941150E-07 <-- DLTA
 ------------------------------------------------------------------------------
 Cycle:    487
  WF centre and spread    1  (  0.000000,  0.000000, -3.333623 )     3.03429828
  WF centre and spread    2  (  0.000001, -3.333623,  0.000000 )     3.03430031
  WF centre and spread    3  ( -3.333622,  0.000000, -0.000001 )     3.03449364
  Sum of centres and spreads ( -3.333621, -3.333622, -3.333623 )     9.10309222
 
    487    -0.174E-07     0.0000946035        9.1030948859       1.03  <-- CONV
        O_D=      0.0000000 O_OD=      0.0314909 O_TOT=      9.1030949 <-- SPRD
 Delta: O_D=  0.4773634E-10 O_OD= -0.1743461E-07 O_TOT= -0.1738687E-07 <-- DLTA
 ------------------------------------------------------------------------------
 Cycle:    488
  WF centre and spread    1  (  0.000000,  0.000000, -3.333623 )     3.03429828
  WF centre and spread    2  (  0.000001, -3.333623,  0.000000 )     3.03430031
  WF centre and spread    3  ( -3.333622,  0.000000, -0.000001 )     3.03449364
  Sum of centres and spreads ( -3.333621, -3.333622, -3.333623 )     9.10309222
 
    488    -0.156E-10     0.0000722081        9.1030948859       1.03  <-- CONV
        O_D=      0.0000000 O_OD=      0.0314909 O_TOT=      9.1030949 <-- SPRD
 Delta: O_D= -0.6237588E-15 O_OD= -0.1559224E-10 O_TOT= -0.1559464E-10 <-- DLTA
 ------------------------------------------------------------------------------
 Cycle:    489
  WF centre and spread    1  (  0.000000,  0.000000, -3.333623 )     3.03429827
  WF centre and spread    2  (  0.000001, -3.333623,  0.000000 )     3.03430030
  WF centre and spread    3  ( -3.333622,  0.000000, -0.000001 )     3.03449363
  Sum of centres and spreads ( -3.333621, -3.333622, -3.333623 )     9.10309220
 
    489    -0.177E-07     0.0000721854        9.1030948681       1.03  <-- CONV
        O_D=      0.0000000 O_OD=      0.0314909 O_TOT=      9.1030949 <-- SPRD
 Delta: O_D=  0.3272744E-08 O_OD= -0.2098564E-07 O_TOT= -0.1771289E-07 <-- DLTA
 ------------------------------------------------------------------------------
 Cycle:    490
  WF centre and spread    1  (  0.000000,  0.000000, -3.333623 )     3.03429826
  WF centre and spread    2  (  0.000001, -3.333623,  0.000000 )     3.03430030
  WF centre and spread    3  ( -3.333622,  0.000000, -0.000001 )     3.03449363
  Sum of centres and spreads ( -3.333621, -3.333622, -3.333623 )     9.10309219
 
    490    -0.107E-07     0.0001054697        9.1030948575       1.04  <-- CONV
        O_D=      0.0000000 O_OD=      0.0314909 O_TOT=      9.1030949 <-- SPRD
 Delta: O_D= -0.3897758E-08 O_OD= -0.6771869E-08 O_TOT= -0.1066963E-07 <-- DLTA
 ------------------------------------------------------------------------------
 Cycle:    491
  WF centre and spread    1  (  0.000000,  0.000000, -3.333623 )     3.03429826
  WF centre and spread    2  (  0.000001, -3.333623,  0.000000 )     3.03430030
  WF centre and spread    3  ( -3.333622,  0.000000, -0.000001 )     3.03449363
  Sum of centres and spreads ( -3.333621, -3.333622, -3.333623 )     9.10309219
 
    491    -0.104E-10     0.0000575569        9.1030948575       1.04  <-- CONV
        O_D=      0.0000000 O_OD=      0.0314909 O_TOT=      9.1030949 <-- SPRD
 Delta: O_D= -0.1486022E-11 O_OD= -0.8895717E-11 O_TOT= -0.1038281E-10 <-- DLTA
 ------------------------------------------------------------------------------
 Cycle:    492
  WF centre and spread    1  (  0.000000,  0.000000, -3.333623 )     3.03429826
  WF centre and spread    2  (  0.000001, -3.333623,  0.000000 )     3.03430028
  WF centre and spread    3  ( -3.333622,  0.000000, -0.000001 )     3.03449364
  Sum of centres and spreads ( -3.333621, -3.333622, -3.333623 )     9.10309217
 
    492    -0.174E-07     0.0000575468        9.1030948400       1.04  <-- CONV
        O_D=      0.0000000 O_OD=      0.0314908 O_TOT=      9.1030948 <-- SPRD
 Delta: O_D=  0.3593508E-08 O_OD= -0.2103029E-07 O_TOT= -0.1743678E-07 <-- DLTA
 ------------------------------------------------------------------------------
 Cycle:    493
  WF centre and spread    1  (  0.000000,  0.000000, -3.333623 )     3.03429826
  WF centre and spread    2  (  0.000001, -3.333623,  0.000000 )     3.03430027
  WF centre and spread    3  ( -3.333622,  0.000000, -0.000001 )     3.03449364
  Sum of centres and spreads ( -3.333621, -3.333622, -3.333623 )     9.10309216
 
    493    -0.994E-08     0.0001071888        9.1030948301       1.04  <-- CONV
        O_D=      0.0000000 O_OD=      0.0314908 O_TOT=      9.1030948 <-- SPRD
 Delta: O_D= -0.5015154E-08 O_OD= -0.4922027E-08 O_TOT= -0.9937180E-08 <-- DLTA
 ------------------------------------------------------------------------------
 Cycle:    494
  WF centre and spread    1  (  0.000000,  0.000000, -3.333623 )     3.03429826
  WF centre and spread    2  (  0.000001, -3.333623,  0.000000 )     3.03430027
  WF centre and spread    3  ( -3.333622,  0.000000, -0.000001 )     3.03449364
  Sum of centres and spreads ( -3.333621, -3.333622, -3.333623 )     9.10309216
 
    494    -0.847E-11     0.0000514849        9.1030948301       1.04  <-- CONV
        O_D=      0.0000000 O_OD=      0.0314908 O_TOT=      9.1030948 <-- SPRD
 Delta: O_D= -0.2131846E-12 O_OD= -0.8255223E-11 O_TOT= -0.8467893E-11 <-- DLTA
 ------------------------------------------------------------------------------
 Cycle:    495
  WF centre and spread    1  (  0.000000,  0.000000, -3.333623 )     3.03429824
  WF centre and spread    2  (  0.000001, -3.333623,  0.000000 )     3.03430027
  WF centre and spread    3  ( -3.333622,  0.000000, -0.000001 )     3.03449364
  Sum of centres and spreads ( -3.333621, -3.333622, -3.333623 )     9.10309215
 
    495    -0.162E-07     0.0000514792        9.1030948139       1.04  <-- CONV
        O_D=      0.0000000 O_OD=      0.0314908 O_TOT=      9.1030948 <-- SPRD
 Delta: O_D=  0.1932438E-07 O_OD= -0.3555046E-07 O_TOT= -0.1622609E-07 <-- DLTA
 ------------------------------------------------------------------------------
 Cycle:    496
  WF centre and spread    1  (  0.000000,  0.000000, -3.333623 )     3.03429823
  WF centre and spread    2  (  0.000001, -3.333623,  0.000000 )     3.03430025
  WF centre and spread    3  ( -3.333622,  0.000000, -0.000001 )     3.03449363
  Sum of centres and spreads ( -3.333621, -3.333622, -3.333623 )     9.10309212
 
    496    -0.308E-07     0.0001941172        9.1030947830       1.05  <-- CONV
        O_D=      0.0000000 O_OD=      0.0314908 O_TOT=      9.1030948 <-- SPRD
 Delta: O_D= -0.1847019E-07 O_OD= -0.1235301E-07 O_TOT= -0.3082320E-07 <-- DLTA
 ------------------------------------------------------------------------------
 Cycle:    497
  WF centre and spread    1  (  0.000000,  0.000000, -3.333623 )     3.03429823
  WF centre and spread    2  (  0.000001, -3.333623,  0.000000 )     3.03430025
  WF centre and spread    3  ( -3.333622,  0.000000, -0.000001 )     3.03449363
  Sum of centres and spreads ( -3.333621, -3.333622, -3.333623 )     9.10309211
 
    497    -0.105E-07     0.0000700036        9.1030947726       1.05  <-- CONV
        O_D=      0.0000000 O_OD=      0.0314908 O_TOT=      9.1030948 <-- SPRD
 Delta: O_D=  0.6672444E-09 O_OD= -0.1113892E-07 O_TOT= -0.1047168E-07 <-- DLTA
 ------------------------------------------------------------------------------
 Cycle:    498
  WF centre and spread    1  (  0.000000,  0.000000, -3.333623 )     3.03429823
  WF centre and spread    2  (  0.000001, -3.333623,  0.000000 )     3.03430025
  WF centre and spread    3  ( -3.333622,  0.000000, -0.000001 )     3.03449363
  Sum of centres and spreads ( -3.333621, -3.333622, -3.333623 )     9.10309211
 
    498    -0.164E-10     0.0000846825        9.1030947725       1.05  <-- CONV
        O_D=      0.0000000 O_OD=      0.0314908 O_TOT=      9.1030948 <-- SPRD
 Delta: O_D= -0.3302439E-12 O_OD= -0.1604795E-10 O_TOT= -0.1637801E-10 <-- DLTA
 ------------------------------------------------------------------------------
 Cycle:    499
  WF centre and spread    1  (  0.000000,  0.000000, -3.333623 )     3.03429822
  WF centre and spread    2  (  0.000001, -3.333623,  0.000000 )     3.03430024
  WF centre and spread    3  ( -3.333622,  0.000000, -0.000001 )     3.03449362
  Sum of centres and spreads ( -3.333621, -3.333622, -3.333623 )     9.10309208
 
    499    -0.267E-07     0.0000846773        9.1030947458       1.05  <-- CONV
        O_D=      0.0000000 O_OD=      0.0314907 O_TOT=      9.1030947 <-- SPRD
 Delta: O_D=  0.2465761E-08 O_OD= -0.2920272E-07 O_TOT= -0.2673696E-07 <-- DLTA
 ------------------------------------------------------------------------------
 Cycle:    500
  WF centre and spread    1  (  0.000000,  0.000000, -3.333623 )     3.03429820
  WF centre and spread    2  (  0.000001, -3.333623,  0.000000 )     3.03430021
  WF centre and spread    3  ( -3.333622,  0.000000, -0.000001 )     3.03449363
  Sum of centres and spreads ( -3.333621, -3.333622, -3.333623 )     9.10309204
 
    500    -0.342E-07     0.0001175859        9.1030947116       1.05  <-- CONV
        O_D=      0.0000000 O_OD=      0.0314907 O_TOT=      9.1030947 <-- SPRD
 Delta: O_D=  0.1261928E-07 O_OD= -0.4686758E-07 O_TOT= -0.3424831E-07 <-- DLTA
 ------------------------------------------------------------------------------

 Writing checkpoint file mp-1253.chk... done

 Final State
  WF centre and spread    1  (  0.000000,  0.000000, -3.333623 )     3.03429820
  WF centre and spread    2  (  0.000001, -3.333623,  0.000000 )     3.03430021
  WF centre and spread    3  ( -3.333622,  0.000000, -0.000001 )     3.03449363
  Sum of centres and spreads ( -3.333621, -3.333622, -3.333623 )     9.10309204
 
         Spreads (Ang^2)       Omega I      =     9.071604004
        ================       Omega D      =     0.000000018
                               Omega OD     =     0.031490689
    Final Spread (Ang^2)       Omega Total  =     9.103094712
 ------------------------------------------------------------------------------
 Time for wannierise            1.047 (sec)

 Writing checkpoint file mp-1253.chk... done

 Time for plotting              0.000 (sec)
 Total Execution Time           2.031 (sec)

 *===========================================================================*
 |                             TIMING INFORMATION                            |
 *===========================================================================*
 |    Tag                                                Ncalls      Time (s)|
 |---------------------------------------------------------------------------|
 |kmesh: get                                        :         1         0.724|
 |overlap: allocate                                 :         1         0.001|
 |overlap: read                                     :         1         0.084|
 |wann: main                                        :         1         1.047|
 |plot: main                                        :         1         0.000|
 *---------------------------------------------------------------------------*
 
 All done: wannier90 exiting
