
     Program PWSCF v.7.1 starts on  3Jan2024 at 14:35:26 

     This program is part of the open-source Quantum ESPRESSO suite
     for quantum simulation of materials; please cite
         "P. Giannozzi et al., J. Phys.:Condens. Matter 21 395502 (2009);
         "P. Giannozzi et al., J. Phys.:Condens. Matter 29 465901 (2017);
         "P. Giannozzi et al., J. Chem. Phys. 152 154105 (2020);
          URL http://www.quantum-espresso.org", 
     in publications or presentations arising from this work. More details at
     http://www.quantum-espresso.org/quote

     Parallel version (MPI), running on     8 processors

     MPI processes distributed on     1 nodes
     121034 MiB available memory on the printing compute node when the environment starts
 
     Reading input from pw_mp-2758_emass_k3000_E130.in
Warning: card &IONS ignored
Warning: card / ignored
Warning: card &CELL ignored
Warning: card / ignored

     Current dimensions of program PWSCF are:
     Max number of different atomic species (ntypx) = 10
     Max number of k-points (npk) =  40000
     Max angular momentum in pseudopotentials (lmaxx) =  4

     Atomic positions and unit cell read from directory:
     out/mp-2758.save/
     Atomic positions from file used, from input discarded
 
 
     R & G space division:  proc/nbgrp/npool/nimage =       8
     Subspace diagonalization in iterative solution of the eigenvalue problem:
     a serial algorithm will be used

 
     Parallelization info
     --------------------
     sticks:   dense  smooth     PW     G-vecs:    dense   smooth      PW
     Min         315     315     85                10455    10455    1503
     Max         316     316     86                10458    10458    1506
     Sum        2527    2527    685                83659    83659   12039
 
     Using Slab Decomposition
 


     bravais-lattice index     =            2
     lattice parameter (alat)  =      11.8664  a.u.
     unit-cell volume          =     417.7298 (a.u.)^3
     number of atoms/cell      =            2
     number of atomic types    =            2
     number of electrons       =        16.00
     number of Kohn-Sham states=           16
     kinetic-energy cutoff     =     130.0000  Ry
     charge density cutoff     =     520.0000  Ry
     Exchange-correlation= PBE
                           (   1   4   3   4   0   0   0)

     celldm(1)=  11.866386  celldm(2)=   0.000000  celldm(3)=   0.000000
     celldm(4)=   0.000000  celldm(5)=   0.000000  celldm(6)=   0.000000

     crystal axes: (cart. coord. in units of alat)
               a(1) = (  -0.500000   0.000000   0.500000 )  
               a(2) = (   0.000000   0.500000   0.500000 )  
               a(3) = (  -0.500000   0.500000   0.000000 )  

     reciprocal axes: (cart. coord. in units 2 pi/alat)
               b(1) = ( -1.000000 -1.000000  1.000000 )  
               b(2) = (  1.000000  1.000000  1.000000 )  
               b(3) = ( -1.000000  1.000000 -1.000000 )  


     PseudoPot. # 1 for Se read from file:
     /usr/scratch4/magr4985/MG/devEb/pseudo/SG15/Se.upf
     MD5 check sum: c44afd8c4e480dd2a5f8f6cb06637de2
     Pseudo is Norm-conserving, Zval =  6.0
     Generated using ONCVPSP code by D. R. Hamann
     Using radial grid of  602 points,  6 beta functions with: 
                l(1) =   0
                l(2) =   0
                l(3) =   1
                l(4) =   1
                l(5) =   2
                l(6) =   2

     PseudoPot. # 2 for Sr read from file:
     /usr/scratch4/magr4985/MG/devEb/pseudo/SG15/Sr.upf
     MD5 check sum: 7138e3241744793a1037e143c224f249
     Pseudo is Norm-conserving, Zval = 10.0
     Generated using ONCVPSP code by D. R. Hamann
     Using radial grid of  602 points,  6 beta functions with: 
                l(1) =   0
                l(2) =   0
                l(3) =   1
                l(4) =   1
                l(5) =   2
                l(6) =   2

     atomic species   valence    mass     pseudopotential
        Se             6.00    78.96000     Se( 1.00)
        Sr            10.00    87.62000     Sr( 1.00)

     48 Sym. Ops., with inversion, found



   Cartesian axes

     site n.     atom                  positions (alat units)
         1           Sr  tau(   1) = (   0.0000000   0.0000000   0.0000000  )
         2           Se  tau(   2) = (  -0.5000000   0.5000000   0.5000000  )

     number of k points=     7  Gaussian smearing, width (Ry)=  0.0005
                       cart. coord. in units 2pi/alat
        k(    1) = (   0.0000000  -1.0000000   0.0000000), wk =   0.2857143
        k(    2) = (   0.0100000  -1.0000000   0.0000000), wk =   0.2857143
        k(    3) = (  -0.0100000  -1.0000000   0.0000000), wk =   0.2857143
        k(    4) = (   0.0000000  -0.9900000   0.0000000), wk =   0.2857143
        k(    5) = (   0.0000000  -1.0100000   0.0000000), wk =   0.2857143
        k(    6) = (   0.0000000  -1.0000000   0.0100000), wk =   0.2857143
        k(    7) = (   0.0000000  -1.0000000  -0.0100000), wk =   0.2857143

     Dense  grid:    83659 G-vectors     FFT dimensions: (  64,  64,  64)

     Estimated max dynamical RAM per process >      11.53 MB

     Estimated total dynamical RAM >      92.23 MB

     The potential is recalculated from file :
     out/mp-2758.save/charge-density

     Starting wfcs are random

     Band Structure Calculation
     ParO style diagonalization

     ethr =  5.00E-06,  avg # of iterations = 19.5

     total cpu time spent up to now is        2.3 secs

     End of band structure calculation

          k = 0.0000-1.0000 0.0000 ( 10478 PWs)   bands (ev):

   -28.4508 -10.5838 -10.4885 -10.4885  -5.4038   3.8758   4.9531   4.9531
     7.7485  10.7144  11.3940  12.4243  12.8129  12.8129  14.5100  17.6833

          k = 0.0100-1.0000 0.0000 ( 10478 PWs)   bands (ev):

   -28.4508 -10.5838 -10.4885 -10.4885  -5.4037   3.8759   4.9522   4.9525
     7.7498  10.7158  11.3950  12.4239  12.8112  12.8129  14.5105  17.6808

          k =-0.0100-1.0000 0.0000 ( 10478 PWs)   bands (ev):

   -28.4508 -10.5838 -10.4885 -10.4885  -5.4037   3.8759   4.9522   4.9525
     7.7498  10.7158  11.3950  12.4239  12.8112  12.8129  14.5105  17.6811

          k = 0.0000-0.9900 0.0000 ( 10478 PWs)   bands (ev):

   -28.4508 -10.5838 -10.4885 -10.4885  -5.4037   3.8754   4.9531   4.9531
     7.7488  10.7144  11.3937  12.4248  12.8127  12.8127  14.5110  17.6768

          k = 0.0000-1.0100 0.0000 ( 10478 PWs)   bands (ev):

   -28.4508 -10.5838 -10.4885 -10.4885  -5.4037   3.8754   4.9531   4.9531
     7.7488  10.7144  11.3937  12.4248  12.8127  12.8127  14.5110  17.6768

          k = 0.0000-1.0000 0.0100 ( 10478 PWs)   bands (ev):

   -28.4508 -10.5838 -10.4885 -10.4885  -5.4037   3.8759   4.9522   4.9525
     7.7498  10.7158  11.3950  12.4239  12.8112  12.8129  14.5105  17.6807

          k = 0.0000-1.0000-0.0100 ( 10478 PWs)   bands (ev):

   -28.4508 -10.5838 -10.4885 -10.4885  -5.4037   3.8759   4.9522   4.9525
     7.7498  10.7158  11.3950  12.4239  12.8112  12.8129  14.5105  17.6811

     the Fermi energy is     6.1810 ev
     (compare with:     7.6953 eV, computed in scf)

     Writing all to output data dir out/mp-2758.save/
 
     init_run     :      0.17s CPU      0.20s WALL (       1 calls)
     electrons    :      1.94s CPU      2.00s WALL (       1 calls)

     Called by init_run:
     wfcinit      :      0.00s CPU      0.00s WALL (       1 calls)
     potinit      :      0.04s CPU      0.05s WALL (       1 calls)
     hinit0       :      0.02s CPU      0.03s WALL (       1 calls)

     Called by electrons:
     c_bands      :      1.94s CPU      2.00s WALL (       1 calls)
     v_of_rho     :      0.03s CPU      0.03s WALL (       1 calls)

     Called by c_bands:
     init_us_2    :      0.00s CPU      0.00s WALL (       7 calls)
     init_us_2:cp :      0.00s CPU      0.00s WALL (       7 calls)
     paro_k       :      1.81s CPU      1.87s WALL (       7 calls)

     Called by paro_*:
     h_psi        :      1.57s CPU      1.61s WALL (     391 calls)
     g_psi        :      0.02s CPU      0.02s WALL (    2536 calls)

     Called by h_psi:
     h_psi:calbec :      0.07s CPU      0.07s WALL (     391 calls)
     vloc_psi     :      1.43s CPU      1.48s WALL (     391 calls)
     add_vuspsi   :      0.05s CPU      0.06s WALL (     391 calls)

     General routines
     calbec       :      0.07s CPU      0.07s WALL (     391 calls)
     fft          :      0.01s CPU      0.03s WALL (      10 calls)
     fftw         :      1.25s CPU      1.29s WALL (    4362 calls)
 
     Parallel routines
 
     PWSCF        :      2.24s CPU      2.36s WALL

 
   This run was terminated on:  14:35:28   3Jan2024            

=------------------------------------------------------------------------------=
   JOB DONE.
=------------------------------------------------------------------------------=
