 vasp.5.4.4.18Apr17-6-g9f103f2a35 (build Aug 24 2017 11:22:49) complex          
  
 executed on             LinuxIFC date 2023.12.30  15:49:15
 running on   24 total cores
 distrk:  each k-point on   24 cores,    1 groups
 distr:  one band on NCORES_PER_BAND=   1 cores,   24 groups


--------------------------------------------------------------------------------------------------------


 INCAR:
 POTCAR:    PAW_PBE In_d 06Sep2000                
 POTCAR:    PAW_PBE Br 06Sep2000                  

 ----------------------------------------------------------------------------- 
|                                                                             |
|           W    W    AA    RRRRR   N    N  II  N    N   GGGG   !!!           |
|           W    W   A  A   R    R  NN   N  II  NN   N  G    G  !!!           |
|           W    W  A    A  R    R  N N  N  II  N N  N  G       !!!           |
|           W WW W  AAAAAA  RRRRR   N  N N  II  N  N N  G  GGG   !            |
|           WW  WW  A    A  R   R   N   NN  II  N   NN  G    G                |
|           W    W  A    A  R    R  N    N  II  N    N   GGGG   !!!           |
|                                                                             |
|      For optimal performance we recommend to set                            |
|        NCORE= 4 - approx SQRT( number of cores)                             |
|      NCORE specifies how many cores store one orbital (NPAR=cpu/NCORE).     |
|      This setting can  greatly improve the performance of VASP for DFT.     |
|      The default,   NCORE=1            might be grossly inefficient         |
|      on modern multi-core architectures or massively parallel machines.     |
|      Do your own testing !!!!                                               |
|      Unfortunately you need to use the default for GW and RPA calculations. |
|      (for HF NCORE is supported but not extensively tested yet)             |
|                                                                             |
 ----------------------------------------------------------------------------- 

 POTCAR:    PAW_PBE In_d 06Sep2000                
   VRHFIN =In: s2p1                                                             
   LEXCH  = PE                                                                  
   EATOM  =  1576.8302 eV,  115.8937 Ry                                         
                                                                                
   TITEL  = PAW_PBE In_d 06Sep2000                                              
   LULTRA =        F    use ultrasoft PP ?                                      
   IUNSCR =        1    unscreen: 0-lin 1-nonlin 2-no                           
   RPACOR =    2.200    partial core radius                                     
   POMASS =  114.820; ZVAL   =   13.000    mass and valenz                      
   RCORE  =    2.500    outmost cutoff radius                                   
   RWIGS  =    3.170; RWIGS  =    1.677    wigner-seitz radius (au A)           
   ENMAX  =  239.211; ENMIN  =  179.409 eV                                      
   ICORE  =        3    local potential                                         
   LCOR   =        T    correct aug charges                                     
   LPAW   =        T    paw PP                                                  
   EAUG   =  449.704                                                            
   DEXC   =    0.000                                                            
   RMAX   =    2.552    core radius for proj-oper                               
   RAUG   =    1.300    factor for augmentation sphere                          
   RDEP   =    2.630    radius for radial grids                                 
   RDEPT  =    2.033    core radius for aug-charge                              
                                                                                
   Atomic configuration                                                         
   12 entries                                                                   
     n  l   j            E        occ.                                          
     1  0  0.50    -27747.9169   2.0000                                         
     2  0  0.50     -4154.4438   2.0000                                         
     2  1  1.50     -3728.4305   6.0000                                         
     3  0  0.50      -788.3680   2.0000                                         
     3  1  1.50      -648.9215   6.0000                                         
     3  2  2.50      -432.5893  10.0000                                         
     4  0  0.50      -119.6363   2.0000                                         
     4  1  1.50       -78.1086   6.0000                                         
     4  2  2.50       -18.6227  10.0000                                         
     5  0  0.50        -8.2107   2.0000                                         
     5  1  0.50        -2.5185   1.0000                                         
     4  3  2.50        -2.7212   0.0000                                         
   Description                                                                  
     l       E           TYP  RCUT    TYP  RCUT                                 
     2    -18.6226981     23  2.500                                             
     2     -1.3605826     23  2.500                                             
     0     -8.2107305     23  2.500                                             
     0     -6.1485975     23  2.500                                             
     1     -2.5184867     23  2.500                                             
     1      3.2427302     23  2.500                                             
     3     -1.3605826      7  2.500                                             
  local pseudopotential read in
  partial core-charges read in
  partial kinetic energy density read in
  atomic valenz-charges read in
  non local Contribution for L=           2  read in
    real space projection operators read in
  non local Contribution for L=           2  read in
    real space projection operators read in
  non local Contribution for L=           0  read in
    real space projection operators read in
  non local Contribution for L=           0  read in
    real space projection operators read in
  non local Contribution for L=           1  read in
    real space projection operators read in
  non local Contribution for L=           1  read in
    real space projection operators read in
    PAW grid and wavefunctions read in
 
   number of l-projection  operators is LMAX  =           6
   number of lm-projection operators is LMMAX =          18
 
 POTCAR:    PAW_PBE Br 06Sep2000                  
   VRHFIN =Br: s2p5                                                             
   LEXCH  = PE                                                                  
   EATOM  =   368.4488 eV,   27.0802 Ry                                         
                                                                                
   TITEL  = PAW_PBE Br 06Sep2000                                                
   LULTRA =        F    use ultrasoft PP ?                                      
   IUNSCR =        1    unscreen: 0-lin 1-nonlin 2-no                           
   RPACOR =    1.900    partial core radius                                     
   POMASS =   79.904; ZVAL   =    7.000    mass and valenz                      
   RCORE  =    2.100    outmost cutoff radius                                   
   RWIGS  =    2.200; RWIGS  =    1.164    wigner-seitz radius (au A)           
   ENMAX  =  216.285; ENMIN  =  162.214 eV                                      
   ICORE  =        3    local potential                                         
   LCOR   =        T    correct aug charges                                     
   LPAW   =        T    paw PP                                                  
   EAUG   =  503.852                                                            
   DEXC   =    0.000                                                            
   RMAX   =    2.139    core radius for proj-oper                               
   RAUG   =    1.300    factor for augmentation sphere                          
   RDEP   =    2.186    radius for radial grids                                 
   RDEPT  =    1.890    core radius for aug-charge                              
                                                                                
   Atomic configuration                                                         
   10 entries                                                                   
     n  l   j            E        occ.                                          
     1  0  0.50    -13316.2796   2.0000                                         
     2  0  0.50     -1732.8239   2.0000                                         
     2  1  1.50     -1528.2193   6.0000                                         
     3  0  0.50      -238.0460   2.0000                                         
     3  1  1.50      -173.4609   6.0000                                         
     3  2  2.50       -66.7132  10.0000                                         
     4  0  0.50       -20.1334   2.0000                                         
     4  1  0.50        -7.8591   5.0000                                         
     4  2  2.50        -8.1635   0.0000                                         
     4  3  2.50        -8.1635   0.0000                                         
   Description                                                                  
     l       E           TYP  RCUT    TYP  RCUT                                 
     0    -20.1333652     23  2.100                                             
     0    -21.4939478     23  2.100                                             
     1     -7.8591052     23  2.100                                             
     1     -3.1608434     23  2.100                                             
     2     -8.1634956     23  2.100                                             
     3     -1.3605826      7  2.100                                             
  local pseudopotential read in
  partial core-charges read in
  partial kinetic energy density read in
  atomic valenz-charges read in
  non local Contribution for L=           0  read in
    real space projection operators read in
  non local Contribution for L=           0  read in
    real space projection operators read in
  non local Contribution for L=           1  read in
    real space projection operators read in
  non local Contribution for L=           1  read in
    real space projection operators read in
  non local Contribution for L=           2  read in
    real space projection operators read in
    PAW grid and wavefunctions read in
 
   number of l-projection  operators is LMAX  =           5
   number of lm-projection operators is LMMAX =          13
 
  PAW_PBE In_d 06Sep2000                :
 energy of atom  1       EATOM=-1576.8302
 kinetic energy error for atom=    0.0029 (will be added to EATOM!!)
  PAW_PBE Br 06Sep2000                  :
 energy of atom  2       EATOM= -368.4488
 kinetic energy error for atom=    0.0011 (will be added to EATOM!!)
 
 
 POSCAR: In2 Br2                                 
  positions in direct lattice
  No initial velocities read in
 exchange correlation table for  LEXCH =        8
   RHO(1)=    0.500       N(1)  =     2000
   RHO(2)=  100.500       N(2)  =     4000
 


--------------------------------------------------------------------------------------------------------


 ion  position               nearest neighbor table
   1  0.393  0.393  0.250-   3 2.98   4 3.30   4 3.30   4 3.30   4 3.30   2 3.49   2 3.49
   2  0.607  0.607  0.750-   4 2.98   3 3.30   3 3.30   3 3.30   3 3.30   1 3.49   1 3.49
   3  0.151  0.151  0.250-   1 2.98   2 3.30   2 3.30   2 3.30   2 3.30
   4  0.849  0.849  0.750-   2 2.98   1 3.30   1 3.30   1 3.30   1 3.30
 
  LATTYP: Found a base centered orthorhombic cell.
 ALAT       =     4.5887499163
 B/A-ratio  =     2.6846643447
 C/A-ratio  =     1.0029787220
  
  Lattice vectors:
  
 A1 = (   2.2943749581,   6.1596266435,   0.0000000000)
 A2 = (   2.2943749581,  -6.1596266435,   0.0000000000)
 A3 = (   0.0000000000,   0.0000000000,  -4.6024185265)


Analysis of symmetry for initial positions (statically):
=====================================================================
 Subroutine PRICEL returns:
 Original cell was already a primitive cell.
 

 Routine SETGRP: Setting up the symmetry group for a 
 base centered orthorhombic supercell.


 Subroutine GETGRP returns: Found  2 space group operations
 (whereof  1 operations were pure point group operations)
 out of a pool of  8 trial point group operations.


The static configuration has the point symmetry C_1 .
 The point group associated with its full space group is S_2 .


Analysis of symmetry for dynamics (positions and initial velocities):
=====================================================================
 Subroutine PRICEL returns:
 Original cell was already a primitive cell.
 

 Routine SETGRP: Setting up the symmetry group for a 
 base centered orthorhombic supercell.


 Subroutine GETGRP returns: Found  2 space group operations
 (whereof  1 operations were pure point group operations)
 out of a pool of  8 trial point group operations.


The dynamic configuration has the point symmetry C_1 .
 The point group associated with its full space group is S_2 .


 Subroutine INISYM returns: Found  2 space group operations
 (whereof  1 operations are pure point group operations),
 and found     1 'primitive' translations

 
 
 KPOINTS: pymatgen with grid density = 3000 / numb

Automatic generation of k-mesh.
Space group operators:
 irot       det(A)        alpha          n_x          n_y          n_z        tau_x        tau_y        tau_z
    1     1.000000     0.000000     1.000000     0.000000     0.000000     0.000000     0.000000     0.000000
    2    -1.000000     0.000000     1.000000     0.000000     0.000000     0.000000    -1.000000    -1.000000
 
 Subroutine IBZKPT returns following result:
 ===========================================
 
 Found    388 irreducible k-points:
 
 Following reciprocal coordinates:
            Coordinates               Weight
  0.000000  0.000000  0.000000      1.000000
  0.125000 -0.000000  0.000000      2.000000
  0.250000 -0.000000  0.000000      2.000000
  0.375000 -0.000000  0.000000      2.000000
  0.500000 -0.000000  0.000000      1.000000
 -0.000000  0.125000  0.000000      2.000000
  0.125000  0.125000  0.000000      2.000000
  0.250000  0.125000  0.000000      2.000000
  0.375000  0.125000  0.000000      2.000000
  0.500000  0.125000  0.000000      2.000000
 -0.375000  0.125000  0.000000      2.000000
 -0.250000  0.125000  0.000000      2.000000
 -0.125000  0.125000  0.000000      2.000000
 -0.000000  0.250000  0.000000      2.000000
  0.125000  0.250000  0.000000      2.000000
  0.250000  0.250000  0.000000      2.000000
  0.375000  0.250000  0.000000      2.000000
  0.500000  0.250000  0.000000      2.000000
 -0.375000  0.250000  0.000000      2.000000
 -0.250000  0.250000  0.000000      2.000000
 -0.125000  0.250000  0.000000      2.000000
 -0.000000  0.375000  0.000000      2.000000
  0.125000  0.375000  0.000000      2.000000
  0.250000  0.375000  0.000000      2.000000
  0.375000  0.375000  0.000000      2.000000
  0.500000  0.375000  0.000000      2.000000
 -0.375000  0.375000  0.000000      2.000000
 -0.250000  0.375000  0.000000      2.000000
 -0.125000  0.375000  0.000000      2.000000
 -0.000000  0.500000  0.000000      1.000000
  0.125000  0.500000  0.000000      2.000000
  0.250000  0.500000  0.000000      2.000000
  0.375000  0.500000  0.000000      2.000000
  0.500000  0.500000  0.000000      1.000000
  0.000000  0.000000  0.083333      2.000000
  0.125000 -0.000000  0.083333      2.000000
  0.250000 -0.000000  0.083333      2.000000
  0.375000 -0.000000  0.083333      2.000000
  0.500000 -0.000000  0.083333      2.000000
 -0.375000  0.000000  0.083333      2.000000
 -0.250000  0.000000  0.083333      2.000000
 -0.125000  0.000000  0.083333      2.000000
 -0.000000  0.125000  0.083333      2.000000
  0.125000  0.125000  0.083333      2.000000
  0.250000  0.125000  0.083333      2.000000
  0.375000  0.125000  0.083333      2.000000
  0.500000  0.125000  0.083333      2.000000
 -0.375000  0.125000  0.083333      2.000000
 -0.250000  0.125000  0.083333      2.000000
 -0.125000  0.125000  0.083333      2.000000
 -0.000000  0.250000  0.083333      2.000000
  0.125000  0.250000  0.083333      2.000000
  0.250000  0.250000  0.083333      2.000000
  0.375000  0.250000  0.083333      2.000000
  0.500000  0.250000  0.083333      2.000000
 -0.375000  0.250000  0.083333      2.000000
 -0.250000  0.250000  0.083333      2.000000
 -0.125000  0.250000  0.083333      2.000000
 -0.000000  0.375000  0.083333      2.000000
  0.125000  0.375000  0.083333      2.000000
  0.250000  0.375000  0.083333      2.000000
  0.375000  0.375000  0.083333      2.000000
  0.500000  0.375000  0.083333      2.000000
 -0.375000  0.375000  0.083333      2.000000
 -0.250000  0.375000  0.083333      2.000000
 -0.125000  0.375000  0.083333      2.000000
 -0.000000  0.500000  0.083333      2.000000
  0.125000  0.500000  0.083333      2.000000
  0.250000  0.500000  0.083333      2.000000
  0.375000  0.500000  0.083333      2.000000
  0.500000  0.500000  0.083333      2.000000
 -0.375000  0.500000  0.083333      2.000000
 -0.250000  0.500000  0.083333      2.000000
 -0.125000  0.500000  0.083333      2.000000
  0.000000 -0.375000  0.083333      2.000000
  0.125000 -0.375000  0.083333      2.000000
  0.250000 -0.375000  0.083333      2.000000
  0.375000 -0.375000  0.083333      2.000000
  0.500000 -0.375000  0.083333      2.000000
 -0.375000 -0.375000  0.083333      2.000000
 -0.250000 -0.375000  0.083333      2.000000
 -0.125000 -0.375000  0.083333      2.000000
  0.000000 -0.250000  0.083333      2.000000
  0.125000 -0.250000  0.083333      2.000000
  0.250000 -0.250000  0.083333      2.000000
  0.375000 -0.250000  0.083333      2.000000
  0.500000 -0.250000  0.083333      2.000000
 -0.375000 -0.250000  0.083333      2.000000
 -0.250000 -0.250000  0.083333      2.000000
 -0.125000 -0.250000  0.083333      2.000000
  0.000000 -0.125000  0.083333      2.000000
  0.125000 -0.125000  0.083333      2.000000
  0.250000 -0.125000  0.083333      2.000000
  0.375000 -0.125000  0.083333      2.000000
  0.500000 -0.125000  0.083333      2.000000
 -0.375000 -0.125000  0.083333      2.000000
 -0.250000 -0.125000  0.083333      2.000000
 -0.125000 -0.125000  0.083333      2.000000
  0.000000  0.000000  0.166667      2.000000
  0.125000 -0.000000  0.166667      2.000000
  0.250000 -0.000000  0.166667      2.000000
  0.375000 -0.000000  0.166667      2.000000
  0.500000 -0.000000  0.166667      2.000000
 -0.375000  0.000000  0.166667      2.000000
 -0.250000  0.000000  0.166667      2.000000
 -0.125000  0.000000  0.166667      2.000000
 -0.000000  0.125000  0.166667      2.000000
  0.125000  0.125000  0.166667      2.000000
  0.250000  0.125000  0.166667      2.000000
  0.375000  0.125000  0.166667      2.000000
  0.500000  0.125000  0.166667      2.000000
 -0.375000  0.125000  0.166667      2.000000
 -0.250000  0.125000  0.166667      2.000000
 -0.125000  0.125000  0.166667      2.000000
 -0.000000  0.250000  0.166667      2.000000
  0.125000  0.250000  0.166667      2.000000
  0.250000  0.250000  0.166667      2.000000
  0.375000  0.250000  0.166667      2.000000
  0.500000  0.250000  0.166667      2.000000
 -0.375000  0.250000  0.166667      2.000000
 -0.250000  0.250000  0.166667      2.000000
 -0.125000  0.250000  0.166667      2.000000
 -0.000000  0.375000  0.166667      2.000000
  0.125000  0.375000  0.166667      2.000000
  0.250000  0.375000  0.166667      2.000000
  0.375000  0.375000  0.166667      2.000000
  0.500000  0.375000  0.166667      2.000000
 -0.375000  0.375000  0.166667      2.000000
 -0.250000  0.375000  0.166667      2.000000
 -0.125000  0.375000  0.166667      2.000000
 -0.000000  0.500000  0.166667      2.000000
  0.125000  0.500000  0.166667      2.000000
  0.250000  0.500000  0.166667      2.000000
  0.375000  0.500000  0.166667      2.000000
  0.500000  0.500000  0.166667      2.000000
 -0.375000  0.500000  0.166667      2.000000
 -0.250000  0.500000  0.166667      2.000000
 -0.125000  0.500000  0.166667      2.000000
  0.000000 -0.375000  0.166667      2.000000
  0.125000 -0.375000  0.166667      2.000000
  0.250000 -0.375000  0.166667      2.000000
  0.375000 -0.375000  0.166667      2.000000
  0.500000 -0.375000  0.166667      2.000000
 -0.375000 -0.375000  0.166667      2.000000
 -0.250000 -0.375000  0.166667      2.000000
 -0.125000 -0.375000  0.166667      2.000000
  0.000000 -0.250000  0.166667      2.000000
  0.125000 -0.250000  0.166667      2.000000
  0.250000 -0.250000  0.166667      2.000000
  0.375000 -0.250000  0.166667      2.000000
  0.500000 -0.250000  0.166667      2.000000
 -0.375000 -0.250000  0.166667      2.000000
 -0.250000 -0.250000  0.166667      2.000000
 -0.125000 -0.250000  0.166667      2.000000
  0.000000 -0.125000  0.166667      2.000000
  0.125000 -0.125000  0.166667      2.000000
  0.250000 -0.125000  0.166667      2.000000
  0.375000 -0.125000  0.166667      2.000000
  0.500000 -0.125000  0.166667      2.000000
 -0.375000 -0.125000  0.166667      2.000000
 -0.250000 -0.125000  0.166667      2.000000
 -0.125000 -0.125000  0.166667      2.000000
  0.000000  0.000000  0.250000      2.000000
  0.125000 -0.000000  0.250000      2.000000
  0.250000 -0.000000  0.250000      2.000000
  0.375000 -0.000000  0.250000      2.000000
  0.500000 -0.000000  0.250000      2.000000
 -0.375000  0.000000  0.250000      2.000000
 -0.250000  0.000000  0.250000      2.000000
 -0.125000  0.000000  0.250000      2.000000
 -0.000000  0.125000  0.250000      2.000000
  0.125000  0.125000  0.250000      2.000000
  0.250000  0.125000  0.250000      2.000000
  0.375000  0.125000  0.250000      2.000000
  0.500000  0.125000  0.250000      2.000000
 -0.375000  0.125000  0.250000      2.000000
 -0.250000  0.125000  0.250000      2.000000
 -0.125000  0.125000  0.250000      2.000000
 -0.000000  0.250000  0.250000      2.000000
  0.125000  0.250000  0.250000      2.000000
  0.250000  0.250000  0.250000      2.000000
  0.375000  0.250000  0.250000      2.000000
  0.500000  0.250000  0.250000      2.000000
 -0.375000  0.250000  0.250000      2.000000
 -0.250000  0.250000  0.250000      2.000000
 -0.125000  0.250000  0.250000      2.000000
 -0.000000  0.375000  0.250000      2.000000
  0.125000  0.375000  0.250000      2.000000
  0.250000  0.375000  0.250000      2.000000
  0.375000  0.375000  0.250000      2.000000
  0.500000  0.375000  0.250000      2.000000
 -0.375000  0.375000  0.250000      2.000000
 -0.250000  0.375000  0.250000      2.000000
 -0.125000  0.375000  0.250000      2.000000
 -0.000000  0.500000  0.250000      2.000000
  0.125000  0.500000  0.250000      2.000000
  0.250000  0.500000  0.250000      2.000000
  0.375000  0.500000  0.250000      2.000000
  0.500000  0.500000  0.250000      2.000000
 -0.375000  0.500000  0.250000      2.000000
 -0.250000  0.500000  0.250000      2.000000
 -0.125000  0.500000  0.250000      2.000000
  0.000000 -0.375000  0.250000      2.000000
  0.125000 -0.375000  0.250000      2.000000
  0.250000 -0.375000  0.250000      2.000000
  0.375000 -0.375000  0.250000      2.000000
  0.500000 -0.375000  0.250000      2.000000
 -0.375000 -0.375000  0.250000      2.000000
 -0.250000 -0.375000  0.250000      2.000000
 -0.125000 -0.375000  0.250000      2.000000
  0.000000 -0.250000  0.250000      2.000000
  0.125000 -0.250000  0.250000      2.000000
  0.250000 -0.250000  0.250000      2.000000
  0.375000 -0.250000  0.250000      2.000000
  0.500000 -0.250000  0.250000      2.000000
 -0.375000 -0.250000  0.250000      2.000000
 -0.250000 -0.250000  0.250000      2.000000
 -0.125000 -0.250000  0.250000      2.000000
  0.000000 -0.125000  0.250000      2.000000
  0.125000 -0.125000  0.250000      2.000000
  0.250000 -0.125000  0.250000      2.000000
  0.375000 -0.125000  0.250000      2.000000
  0.500000 -0.125000  0.250000      2.000000
 -0.375000 -0.125000  0.250000      2.000000
 -0.250000 -0.125000  0.250000      2.000000
 -0.125000 -0.125000  0.250000      2.000000
  0.000000  0.000000  0.333333      2.000000
  0.125000 -0.000000  0.333333      2.000000
  0.250000 -0.000000  0.333333      2.000000
  0.375000 -0.000000  0.333333      2.000000
  0.500000 -0.000000  0.333333      2.000000
 -0.375000  0.000000  0.333333      2.000000
 -0.250000  0.000000  0.333333      2.000000
 -0.125000  0.000000  0.333333      2.000000
 -0.000000  0.125000  0.333333      2.000000
  0.125000  0.125000  0.333333      2.000000
  0.250000  0.125000  0.333333      2.000000
  0.375000  0.125000  0.333333      2.000000
  0.500000  0.125000  0.333333      2.000000
 -0.375000  0.125000  0.333333      2.000000
 -0.250000  0.125000  0.333333      2.000000
 -0.125000  0.125000  0.333333      2.000000
 -0.000000  0.250000  0.333333      2.000000
  0.125000  0.250000  0.333333      2.000000
  0.250000  0.250000  0.333333      2.000000
  0.375000  0.250000  0.333333      2.000000
  0.500000  0.250000  0.333333      2.000000
 -0.375000  0.250000  0.333333      2.000000
 -0.250000  0.250000  0.333333      2.000000
 -0.125000  0.250000  0.333333      2.000000
 -0.000000  0.375000  0.333333      2.000000
  0.125000  0.375000  0.333333      2.000000
  0.250000  0.375000  0.333333      2.000000
  0.375000  0.375000  0.333333      2.000000
  0.500000  0.375000  0.333333      2.000000
 -0.375000  0.375000  0.333333      2.000000
 -0.250000  0.375000  0.333333      2.000000
 -0.125000  0.375000  0.333333      2.000000
 -0.000000  0.500000  0.333333      2.000000
  0.125000  0.500000  0.333333      2.000000
  0.250000  0.500000  0.333333      2.000000
  0.375000  0.500000  0.333333      2.000000
  0.500000  0.500000  0.333333      2.000000
 -0.375000  0.500000  0.333333      2.000000
 -0.250000  0.500000  0.333333      2.000000
 -0.125000  0.500000  0.333333      2.000000
  0.000000 -0.375000  0.333333      2.000000
  0.125000 -0.375000  0.333333      2.000000
  0.250000 -0.375000  0.333333      2.000000
  0.375000 -0.375000  0.333333      2.000000
  0.500000 -0.375000  0.333333      2.000000
 -0.375000 -0.375000  0.333333      2.000000
 -0.250000 -0.375000  0.333333      2.000000
 -0.125000 -0.375000  0.333333      2.000000
  0.000000 -0.250000  0.333333      2.000000
  0.125000 -0.250000  0.333333      2.000000
  0.250000 -0.250000  0.333333      2.000000
  0.375000 -0.250000  0.333333      2.000000
  0.500000 -0.250000  0.333333      2.000000
 -0.375000 -0.250000  0.333333      2.000000
 -0.250000 -0.250000  0.333333      2.000000
 -0.125000 -0.250000  0.333333      2.000000
  0.000000 -0.125000  0.333333      2.000000
  0.125000 -0.125000  0.333333      2.000000
  0.250000 -0.125000  0.333333      2.000000
  0.375000 -0.125000  0.333333      2.000000
  0.500000 -0.125000  0.333333      2.000000
 -0.375000 -0.125000  0.333333      2.000000
 -0.250000 -0.125000  0.333333      2.000000
 -0.125000 -0.125000  0.333333      2.000000
  0.000000  0.000000  0.416667      2.000000
  0.125000 -0.000000  0.416667      2.000000
  0.250000 -0.000000  0.416667      2.000000
  0.375000 -0.000000  0.416667      2.000000
  0.500000 -0.000000  0.416667      2.000000
 -0.375000  0.000000  0.416667      2.000000
 -0.250000  0.000000  0.416667      2.000000
 -0.125000  0.000000  0.416667      2.000000
 -0.000000  0.125000  0.416667      2.000000
  0.125000  0.125000  0.416667      2.000000
  0.250000  0.125000  0.416667      2.000000
  0.375000  0.125000  0.416667      2.000000
  0.500000  0.125000  0.416667      2.000000
 -0.375000  0.125000  0.416667      2.000000
 -0.250000  0.125000  0.416667      2.000000
 -0.125000  0.125000  0.416667      2.000000
 -0.000000  0.250000  0.416667      2.000000
  0.125000  0.250000  0.416667      2.000000
  0.250000  0.250000  0.416667      2.000000
  0.375000  0.250000  0.416667      2.000000
  0.500000  0.250000  0.416667      2.000000
 -0.375000  0.250000  0.416667      2.000000
 -0.250000  0.250000  0.416667      2.000000
 -0.125000  0.250000  0.416667      2.000000
 -0.000000  0.375000  0.416667      2.000000
  0.125000  0.375000  0.416667      2.000000
  0.250000  0.375000  0.416667      2.000000
  0.375000  0.375000  0.416667      2.000000
  0.500000  0.375000  0.416667      2.000000
 -0.375000  0.375000  0.416667      2.000000
 -0.250000  0.375000  0.416667      2.000000
 -0.125000  0.375000  0.416667      2.000000
 -0.000000  0.500000  0.416667      2.000000
  0.125000  0.500000  0.416667      2.000000
  0.250000  0.500000  0.416667      2.000000
  0.375000  0.500000  0.416667      2.000000
  0.500000  0.500000  0.416667      2.000000
 -0.375000  0.500000  0.416667      2.000000
 -0.250000  0.500000  0.416667      2.000000
 -0.125000  0.500000  0.416667      2.000000
  0.000000 -0.375000  0.416667      2.000000
  0.125000 -0.375000  0.416667      2.000000
  0.250000 -0.375000  0.416667      2.000000
  0.375000 -0.375000  0.416667      2.000000
  0.500000 -0.375000  0.416667      2.000000
 -0.375000 -0.375000  0.416667      2.000000
 -0.250000 -0.375000  0.416667      2.000000
 -0.125000 -0.375000  0.416667      2.000000
  0.000000 -0.250000  0.416667      2.000000
  0.125000 -0.250000  0.416667      2.000000
  0.250000 -0.250000  0.416667      2.000000
  0.375000 -0.250000  0.416667      2.000000
  0.500000 -0.250000  0.416667      2.000000
 -0.375000 -0.250000  0.416667      2.000000
 -0.250000 -0.250000  0.416667      2.000000
 -0.125000 -0.250000  0.416667      2.000000
  0.000000 -0.125000  0.416667      2.000000
  0.125000 -0.125000  0.416667      2.000000
  0.250000 -0.125000  0.416667      2.000000
  0.375000 -0.125000  0.416667      2.000000
  0.500000 -0.125000  0.416667      2.000000
 -0.375000 -0.125000  0.416667      2.000000
 -0.250000 -0.125000  0.416667      2.000000
 -0.125000 -0.125000  0.416667      2.000000
  0.000000  0.000000  0.500000      1.000000
  0.125000 -0.000000  0.500000      2.000000
  0.250000 -0.000000  0.500000      2.000000
  0.375000 -0.000000  0.500000      2.000000
  0.500000 -0.000000  0.500000      1.000000
 -0.000000  0.125000  0.500000      2.000000
  0.125000  0.125000  0.500000      2.000000
  0.250000  0.125000  0.500000      2.000000
  0.375000  0.125000  0.500000      2.000000
  0.500000  0.125000  0.500000      2.000000
 -0.375000  0.125000  0.500000      2.000000
 -0.250000  0.125000  0.500000      2.000000
 -0.125000  0.125000  0.500000      2.000000
 -0.000000  0.250000  0.500000      2.000000
  0.125000  0.250000  0.500000      2.000000
  0.250000  0.250000  0.500000      2.000000
  0.375000  0.250000  0.500000      2.000000
  0.500000  0.250000  0.500000      2.000000
 -0.375000  0.250000  0.500000      2.000000
 -0.250000  0.250000  0.500000      2.000000
 -0.125000  0.250000  0.500000      2.000000
 -0.000000  0.375000  0.500000      2.000000
  0.125000  0.375000  0.500000      2.000000
  0.250000  0.375000  0.500000      2.000000
  0.375000  0.375000  0.500000      2.000000
  0.500000  0.375000  0.500000      2.000000
 -0.375000  0.375000  0.500000      2.000000
 -0.250000  0.375000  0.500000      2.000000
 -0.125000  0.375000  0.500000      2.000000
 -0.000000  0.500000  0.500000      1.000000
  0.125000  0.500000  0.500000      2.000000
  0.250000  0.500000  0.500000      2.000000
  0.375000  0.500000  0.500000      2.000000
  0.500000  0.500000  0.500000      1.000000
 
 Following cartesian coordinates:
            Coordinates               Weight
  0.000000  0.000000  0.000000      1.000000
  0.027241  0.010147  0.000000      2.000000
  0.054481  0.020293  0.000000      2.000000
  0.081722  0.030440  0.000000      2.000000
  0.108962  0.040587  0.000000      1.000000
 -0.027241  0.010147  0.000000      2.000000
  0.000000  0.020293  0.000000      2.000000
  0.027241  0.030440  0.000000      2.000000
  0.054481  0.040587  0.000000      2.000000
  0.081722  0.050734  0.000000      2.000000
 -0.108962 -0.020293  0.000000      2.000000
 -0.081722 -0.010147  0.000000      2.000000
 -0.054481  0.000000  0.000000      2.000000
 -0.054481  0.020293  0.000000      2.000000
 -0.027241  0.030440  0.000000      2.000000
  0.000000  0.040587  0.000000      2.000000
  0.027241  0.050734  0.000000      2.000000
  0.054481  0.060880  0.000000      2.000000
 -0.136203 -0.010147  0.000000      2.000000
 -0.108962  0.000000  0.000000      2.000000
 -0.081722  0.010147  0.000000      2.000000
 -0.081722  0.030440  0.000000      2.000000
 -0.054481  0.040587  0.000000      2.000000
 -0.027241  0.050734  0.000000      2.000000
  0.000000  0.060880  0.000000      2.000000
  0.027241  0.071027  0.000000      2.000000
 -0.163443  0.000000  0.000000      2.000000
 -0.136203  0.010147  0.000000      2.000000
 -0.108962  0.020293  0.000000      2.000000
 -0.108962  0.040587  0.000000      1.000000
 -0.081722  0.050734  0.000000      2.000000
 -0.054481  0.060880  0.000000      2.000000
 -0.027241  0.071027  0.000000      2.000000
  0.000000  0.081174  0.000000      1.000000
  0.000000  0.000000  0.018106      2.000000
  0.027241  0.010147  0.018106      2.000000
  0.054481  0.020293  0.018106      2.000000
  0.081722  0.030440  0.018106      2.000000
  0.108962  0.040587  0.018106      2.000000
 -0.081722 -0.030440  0.018106      2.000000
 -0.054481 -0.020293  0.018106      2.000000
 -0.027241 -0.010147  0.018106      2.000000
 -0.027241  0.010147  0.018106      2.000000
  0.000000  0.020293  0.018106      2.000000
  0.027241  0.030440  0.018106      2.000000
  0.054481  0.040587  0.018106      2.000000
  0.081722  0.050734  0.018106      2.000000
 -0.108962 -0.020293  0.018106      2.000000
 -0.081722 -0.010147  0.018106      2.000000
 -0.054481  0.000000  0.018106      2.000000
 -0.054481  0.020293  0.018106      2.000000
 -0.027241  0.030440  0.018106      2.000000
  0.000000  0.040587  0.018106      2.000000
  0.027241  0.050734  0.018106      2.000000
  0.054481  0.060880  0.018106      2.000000
 -0.136203 -0.010147  0.018106      2.000000
 -0.108962  0.000000  0.018106      2.000000
 -0.081722  0.010147  0.018106      2.000000
 -0.081722  0.030440  0.018106      2.000000
 -0.054481  0.040587  0.018106      2.000000
 -0.027241  0.050734  0.018106      2.000000
  0.000000  0.060880  0.018106      2.000000
  0.027241  0.071027  0.018106      2.000000
 -0.163443  0.000000  0.018106      2.000000
 -0.136203  0.010147  0.018106      2.000000
 -0.108962  0.020293  0.018106      2.000000
 -0.108962  0.040587  0.018106      2.000000
 -0.081722  0.050734  0.018106      2.000000
 -0.054481  0.060880  0.018106      2.000000
 -0.027241  0.071027  0.018106      2.000000
  0.000000  0.081174  0.018106      2.000000
 -0.190684  0.010147  0.018106      2.000000
 -0.163443  0.020293  0.018106      2.000000
 -0.136203  0.030440  0.018106      2.000000
  0.081722 -0.030440  0.018106      2.000000
  0.108962 -0.020293  0.018106      2.000000
  0.136203 -0.010147  0.018106      2.000000
  0.163443  0.000000  0.018106      2.000000
  0.190684  0.010147  0.018106      2.000000
  0.000000 -0.060880  0.018106      2.000000
  0.027241 -0.050734  0.018106      2.000000
  0.054481 -0.040587  0.018106      2.000000
  0.054481 -0.020293  0.018106      2.000000
  0.081722 -0.010147  0.018106      2.000000
  0.108962  0.000000  0.018106      2.000000
  0.136203  0.010147  0.018106      2.000000
  0.163443  0.020293  0.018106      2.000000
 -0.027241 -0.050734  0.018106      2.000000
  0.000000 -0.040587  0.018106      2.000000
  0.027241 -0.030440  0.018106      2.000000
  0.027241 -0.010147  0.018106      2.000000
  0.054481  0.000000  0.018106      2.000000
  0.081722  0.010147  0.018106      2.000000
  0.108962  0.020293  0.018106      2.000000
  0.136203  0.030440  0.018106      2.000000
 -0.054481 -0.040587  0.018106      2.000000
 -0.027241 -0.030440  0.018106      2.000000
  0.000000 -0.020293  0.018106      2.000000
  0.000000  0.000000  0.036213      2.000000
  0.027241  0.010147  0.036213      2.000000
  0.054481  0.020293  0.036213      2.000000
  0.081722  0.030440  0.036213      2.000000
  0.108962  0.040587  0.036213      2.000000
 -0.081722 -0.030440  0.036213      2.000000
 -0.054481 -0.020293  0.036213      2.000000
 -0.027241 -0.010147  0.036213      2.000000
 -0.027241  0.010147  0.036213      2.000000
  0.000000  0.020293  0.036213      2.000000
  0.027241  0.030440  0.036213      2.000000
  0.054481  0.040587  0.036213      2.000000
  0.081722  0.050734  0.036213      2.000000
 -0.108962 -0.020293  0.036213      2.000000
 -0.081722 -0.010147  0.036213      2.000000
 -0.054481  0.000000  0.036213      2.000000
 -0.054481  0.020293  0.036213      2.000000
 -0.027241  0.030440  0.036213      2.000000
  0.000000  0.040587  0.036213      2.000000
  0.027241  0.050734  0.036213      2.000000
  0.054481  0.060880  0.036213      2.000000
 -0.136203 -0.010147  0.036213      2.000000
 -0.108962  0.000000  0.036213      2.000000
 -0.081722  0.010147  0.036213      2.000000
 -0.081722  0.030440  0.036213      2.000000
 -0.054481  0.040587  0.036213      2.000000
 -0.027241  0.050734  0.036213      2.000000
  0.000000  0.060880  0.036213      2.000000
  0.027241  0.071027  0.036213      2.000000
 -0.163443  0.000000  0.036213      2.000000
 -0.136203  0.010147  0.036213      2.000000
 -0.108962  0.020293  0.036213      2.000000
 -0.108962  0.040587  0.036213      2.000000
 -0.081722  0.050734  0.036213      2.000000
 -0.054481  0.060880  0.036213      2.000000
 -0.027241  0.071027  0.036213      2.000000
  0.000000  0.081174  0.036213      2.000000
 -0.190684  0.010147  0.036213      2.000000
 -0.163443  0.020293  0.036213      2.000000
 -0.136203  0.030440  0.036213      2.000000
  0.081722 -0.030440  0.036213      2.000000
  0.108962 -0.020293  0.036213      2.000000
  0.136203 -0.010147  0.036213      2.000000
  0.163443  0.000000  0.036213      2.000000
  0.190684  0.010147  0.036213      2.000000
  0.000000 -0.060880  0.036213      2.000000
  0.027241 -0.050734  0.036213      2.000000
  0.054481 -0.040587  0.036213      2.000000
  0.054481 -0.020293  0.036213      2.000000
  0.081722 -0.010147  0.036213      2.000000
  0.108962  0.000000  0.036213      2.000000
  0.136203  0.010147  0.036213      2.000000
  0.163443  0.020293  0.036213      2.000000
 -0.027241 -0.050734  0.036213      2.000000
  0.000000 -0.040587  0.036213      2.000000
  0.027241 -0.030440  0.036213      2.000000
  0.027241 -0.010147  0.036213      2.000000
  0.054481  0.000000  0.036213      2.000000
  0.081722  0.010147  0.036213      2.000000
  0.108962  0.020293  0.036213      2.000000
  0.136203  0.030440  0.036213      2.000000
 -0.054481 -0.040587  0.036213      2.000000
 -0.027241 -0.030440  0.036213      2.000000
  0.000000 -0.020293  0.036213      2.000000
  0.000000  0.000000  0.054319      2.000000
  0.027241  0.010147  0.054319      2.000000
  0.054481  0.020293  0.054319      2.000000
  0.081722  0.030440  0.054319      2.000000
  0.108962  0.040587  0.054319      2.000000
 -0.081722 -0.030440  0.054319      2.000000
 -0.054481 -0.020293  0.054319      2.000000
 -0.027241 -0.010147  0.054319      2.000000
 -0.027241  0.010147  0.054319      2.000000
  0.000000  0.020293  0.054319      2.000000
  0.027241  0.030440  0.054319      2.000000
  0.054481  0.040587  0.054319      2.000000
  0.081722  0.050734  0.054319      2.000000
 -0.108962 -0.020293  0.054319      2.000000
 -0.081722 -0.010147  0.054319      2.000000
 -0.054481  0.000000  0.054319      2.000000
 -0.054481  0.020293  0.054319      2.000000
 -0.027241  0.030440  0.054319      2.000000
  0.000000  0.040587  0.054319      2.000000
  0.027241  0.050734  0.054319      2.000000
  0.054481  0.060880  0.054319      2.000000
 -0.136203 -0.010147  0.054319      2.000000
 -0.108962  0.000000  0.054319      2.000000
 -0.081722  0.010147  0.054319      2.000000
 -0.081722  0.030440  0.054319      2.000000
 -0.054481  0.040587  0.054319      2.000000
 -0.027241  0.050734  0.054319      2.000000
  0.000000  0.060880  0.054319      2.000000
  0.027241  0.071027  0.054319      2.000000
 -0.163443  0.000000  0.054319      2.000000
 -0.136203  0.010147  0.054319      2.000000
 -0.108962  0.020293  0.054319      2.000000
 -0.108962  0.040587  0.054319      2.000000
 -0.081722  0.050734  0.054319      2.000000
 -0.054481  0.060880  0.054319      2.000000
 -0.027241  0.071027  0.054319      2.000000
  0.000000  0.081174  0.054319      2.000000
 -0.190684  0.010147  0.054319      2.000000
 -0.163443  0.020293  0.054319      2.000000
 -0.136203  0.030440  0.054319      2.000000
  0.081722 -0.030440  0.054319      2.000000
  0.108962 -0.020293  0.054319      2.000000
  0.136203 -0.010147  0.054319      2.000000
  0.163443  0.000000  0.054319      2.000000
  0.190684  0.010147  0.054319      2.000000
  0.000000 -0.060880  0.054319      2.000000
  0.027241 -0.050734  0.054319      2.000000
  0.054481 -0.040587  0.054319      2.000000
  0.054481 -0.020293  0.054319      2.000000
  0.081722 -0.010147  0.054319      2.000000
  0.108962  0.000000  0.054319      2.000000
  0.136203  0.010147  0.054319      2.000000
  0.163443  0.020293  0.054319      2.000000
 -0.027241 -0.050734  0.054319      2.000000
  0.000000 -0.040587  0.054319      2.000000
  0.027241 -0.030440  0.054319      2.000000
  0.027241 -0.010147  0.054319      2.000000
  0.054481  0.000000  0.054319      2.000000
  0.081722  0.010147  0.054319      2.000000
  0.108962  0.020293  0.054319      2.000000
  0.136203  0.030440  0.054319      2.000000
 -0.054481 -0.040587  0.054319      2.000000
 -0.027241 -0.030440  0.054319      2.000000
  0.000000 -0.020293  0.054319      2.000000
  0.000000  0.000000  0.072426      2.000000
  0.027241  0.010147  0.072426      2.000000
  0.054481  0.020293  0.072426      2.000000
  0.081722  0.030440  0.072426      2.000000
  0.108962  0.040587  0.072426      2.000000
 -0.081722 -0.030440  0.072426      2.000000
 -0.054481 -0.020293  0.072426      2.000000
 -0.027241 -0.010147  0.072426      2.000000
 -0.027241  0.010147  0.072426      2.000000
  0.000000  0.020293  0.072426      2.000000
  0.027241  0.030440  0.072426      2.000000
  0.054481  0.040587  0.072426      2.000000
  0.081722  0.050734  0.072426      2.000000
 -0.108962 -0.020293  0.072426      2.000000
 -0.081722 -0.010147  0.072426      2.000000
 -0.054481  0.000000  0.072426      2.000000
 -0.054481  0.020293  0.072426      2.000000
 -0.027241  0.030440  0.072426      2.000000
  0.000000  0.040587  0.072426      2.000000
  0.027241  0.050734  0.072426      2.000000
  0.054481  0.060880  0.072426      2.000000
 -0.136203 -0.010147  0.072426      2.000000
 -0.108962  0.000000  0.072426      2.000000
 -0.081722  0.010147  0.072426      2.000000
 -0.081722  0.030440  0.072426      2.000000
 -0.054481  0.040587  0.072426      2.000000
 -0.027241  0.050734  0.072426      2.000000
  0.000000  0.060880  0.072426      2.000000
  0.027241  0.071027  0.072426      2.000000
 -0.163443  0.000000  0.072426      2.000000
 -0.136203  0.010147  0.072426      2.000000
 -0.108962  0.020293  0.072426      2.000000
 -0.108962  0.040587  0.072426      2.000000
 -0.081722  0.050734  0.072426      2.000000
 -0.054481  0.060880  0.072426      2.000000
 -0.027241  0.071027  0.072426      2.000000
  0.000000  0.081174  0.072426      2.000000
 -0.190684  0.010147  0.072426      2.000000
 -0.163443  0.020293  0.072426      2.000000
 -0.136203  0.030440  0.072426      2.000000
  0.081722 -0.030440  0.072426      2.000000
  0.108962 -0.020293  0.072426      2.000000
  0.136203 -0.010147  0.072426      2.000000
  0.163443  0.000000  0.072426      2.000000
  0.190684  0.010147  0.072426      2.000000
  0.000000 -0.060880  0.072426      2.000000
  0.027241 -0.050734  0.072426      2.000000
  0.054481 -0.040587  0.072426      2.000000
  0.054481 -0.020293  0.072426      2.000000
  0.081722 -0.010147  0.072426      2.000000
  0.108962  0.000000  0.072426      2.000000
  0.136203  0.010147  0.072426      2.000000
  0.163443  0.020293  0.072426      2.000000
 -0.027241 -0.050734  0.072426      2.000000
  0.000000 -0.040587  0.072426      2.000000
  0.027241 -0.030440  0.072426      2.000000
  0.027241 -0.010147  0.072426      2.000000
  0.054481  0.000000  0.072426      2.000000
  0.081722  0.010147  0.072426      2.000000
  0.108962  0.020293  0.072426      2.000000
  0.136203  0.030440  0.072426      2.000000
 -0.054481 -0.040587  0.072426      2.000000
 -0.027241 -0.030440  0.072426      2.000000
  0.000000 -0.020293  0.072426      2.000000
  0.000000  0.000000  0.090532      2.000000
  0.027241  0.010147  0.090532      2.000000
  0.054481  0.020293  0.090532      2.000000
  0.081722  0.030440  0.090532      2.000000
  0.108962  0.040587  0.090532      2.000000
 -0.081722 -0.030440  0.090532      2.000000
 -0.054481 -0.020293  0.090532      2.000000
 -0.027241 -0.010147  0.090532      2.000000
 -0.027241  0.010147  0.090532      2.000000
  0.000000  0.020293  0.090532      2.000000
  0.027241  0.030440  0.090532      2.000000
  0.054481  0.040587  0.090532      2.000000
  0.081722  0.050734  0.090532      2.000000
 -0.108962 -0.020293  0.090532      2.000000
 -0.081722 -0.010147  0.090532      2.000000
 -0.054481  0.000000  0.090532      2.000000
 -0.054481  0.020293  0.090532      2.000000
 -0.027241  0.030440  0.090532      2.000000
  0.000000  0.040587  0.090532      2.000000
  0.027241  0.050734  0.090532      2.000000
  0.054481  0.060880  0.090532      2.000000
 -0.136203 -0.010147  0.090532      2.000000
 -0.108962  0.000000  0.090532      2.000000
 -0.081722  0.010147  0.090532      2.000000
 -0.081722  0.030440  0.090532      2.000000
 -0.054481  0.040587  0.090532      2.000000
 -0.027241  0.050734  0.090532      2.000000
  0.000000  0.060880  0.090532      2.000000
  0.027241  0.071027  0.090532      2.000000
 -0.163443  0.000000  0.090532      2.000000
 -0.136203  0.010147  0.090532      2.000000
 -0.108962  0.020293  0.090532      2.000000
 -0.108962  0.040587  0.090532      2.000000
 -0.081722  0.050734  0.090532      2.000000
 -0.054481  0.060880  0.090532      2.000000
 -0.027241  0.071027  0.090532      2.000000
  0.000000  0.081174  0.090532      2.000000
 -0.190684  0.010147  0.090532      2.000000
 -0.163443  0.020293  0.090532      2.000000
 -0.136203  0.030440  0.090532      2.000000
  0.081722 -0.030440  0.090532      2.000000
  0.108962 -0.020293  0.090532      2.000000
  0.136203 -0.010147  0.090532      2.000000
  0.163443  0.000000  0.090532      2.000000
  0.190684  0.010147  0.090532      2.000000
  0.000000 -0.060880  0.090532      2.000000
  0.027241 -0.050734  0.090532      2.000000
  0.054481 -0.040587  0.090532      2.000000
  0.054481 -0.020293  0.090532      2.000000
  0.081722 -0.010147  0.090532      2.000000
  0.108962  0.000000  0.090532      2.000000
  0.136203  0.010147  0.090532      2.000000
  0.163443  0.020293  0.090532      2.000000
 -0.027241 -0.050734  0.090532      2.000000
  0.000000 -0.040587  0.090532      2.000000
  0.027241 -0.030440  0.090532      2.000000
  0.027241 -0.010147  0.090532      2.000000
  0.054481  0.000000  0.090532      2.000000
  0.081722  0.010147  0.090532      2.000000
  0.108962  0.020293  0.090532      2.000000
  0.136203  0.030440  0.090532      2.000000
 -0.054481 -0.040587  0.090532      2.000000
 -0.027241 -0.030440  0.090532      2.000000
  0.000000 -0.020293  0.090532      2.000000
  0.000000  0.000000  0.108639      1.000000
  0.027241  0.010147  0.108639      2.000000
  0.054481  0.020293  0.108639      2.000000
  0.081722  0.030440  0.108639      2.000000
  0.108962  0.040587  0.108639      1.000000
 -0.027241  0.010147  0.108639      2.000000
  0.000000  0.020293  0.108639      2.000000
  0.027241  0.030440  0.108639      2.000000
  0.054481  0.040587  0.108639      2.000000
  0.081722  0.050734  0.108639      2.000000
 -0.108962 -0.020293  0.108639      2.000000
 -0.081722 -0.010147  0.108639      2.000000
 -0.054481  0.000000  0.108639      2.000000
 -0.054481  0.020293  0.108639      2.000000
 -0.027241  0.030440  0.108639      2.000000
  0.000000  0.040587  0.108639      2.000000
  0.027241  0.050734  0.108639      2.000000
  0.054481  0.060880  0.108639      2.000000
 -0.136203 -0.010147  0.108639      2.000000
 -0.108962  0.000000  0.108639      2.000000
 -0.081722  0.010147  0.108639      2.000000
 -0.081722  0.030440  0.108639      2.000000
 -0.054481  0.040587  0.108639      2.000000
 -0.027241  0.050734  0.108639      2.000000
  0.000000  0.060880  0.108639      2.000000
  0.027241  0.071027  0.108639      2.000000
 -0.163443  0.000000  0.108639      2.000000
 -0.136203  0.010147  0.108639      2.000000
 -0.108962  0.020293  0.108639      2.000000
 -0.108962  0.040587  0.108639      1.000000
 -0.081722  0.050734  0.108639      2.000000
 -0.054481  0.060880  0.108639      2.000000
 -0.027241  0.071027  0.108639      2.000000
  0.000000  0.081174  0.108639      1.000000
 
 
 Subroutine IBZKPT_HF returns following result:
 ==============================================
 
 Found    768 k-points in 1st BZ
 the following    768 k-points will be used (e.g. in the exchange kernel)
 Following reciprocal coordinates:   # in IRBZ
  0.000000  0.000000  0.000000    0.00130208   1 t-inv F
  0.125000 -0.000000  0.000000    0.00130208   2 t-inv F
  0.250000 -0.000000  0.000000    0.00130208   3 t-inv F
  0.375000 -0.000000  0.000000    0.00130208   4 t-inv F
  0.500000 -0.000000  0.000000    0.00130208   5 t-inv F
 -0.000000  0.125000  0.000000    0.00130208   6 t-inv F
  0.125000  0.125000  0.000000    0.00130208   7 t-inv F
  0.250000  0.125000  0.000000    0.00130208   8 t-inv F
  0.375000  0.125000  0.000000    0.00130208   9 t-inv F
  0.500000  0.125000  0.000000    0.00130208  10 t-inv F
 -0.375000  0.125000  0.000000    0.00130208  11 t-inv F
 -0.250000  0.125000  0.000000    0.00130208  12 t-inv F
 -0.125000  0.125000  0.000000    0.00130208  13 t-inv F
 -0.000000  0.250000  0.000000    0.00130208  14 t-inv F
  0.125000  0.250000  0.000000    0.00130208  15 t-inv F
  0.250000  0.250000  0.000000    0.00130208  16 t-inv F
  0.375000  0.250000  0.000000    0.00130208  17 t-inv F
  0.500000  0.250000  0.000000    0.00130208  18 t-inv F
 -0.375000  0.250000  0.000000    0.00130208  19 t-inv F
 -0.250000  0.250000  0.000000    0.00130208  20 t-inv F
 -0.125000  0.250000  0.000000    0.00130208  21 t-inv F
 -0.000000  0.375000  0.000000    0.00130208  22 t-inv F
  0.125000  0.375000  0.000000    0.00130208  23 t-inv F
  0.250000  0.375000  0.000000    0.00130208  24 t-inv F
  0.375000  0.375000  0.000000    0.00130208  25 t-inv F
  0.500000  0.375000  0.000000    0.00130208  26 t-inv F
 -0.375000  0.375000  0.000000    0.00130208  27 t-inv F
 -0.250000  0.375000  0.000000    0.00130208  28 t-inv F
 -0.125000  0.375000  0.000000    0.00130208  29 t-inv F
 -0.000000  0.500000  0.000000    0.00130208  30 t-inv F
  0.125000  0.500000  0.000000    0.00130208  31 t-inv F
  0.250000  0.500000  0.000000    0.00130208  32 t-inv F
  0.375000  0.500000  0.000000    0.00130208  33 t-inv F
  0.500000  0.500000  0.000000    0.00130208  34 t-inv F
  0.000000  0.000000  0.083333    0.00130208  35 t-inv F
  0.125000 -0.000000  0.083333    0.00130208  36 t-inv F
  0.250000 -0.000000  0.083333    0.00130208  37 t-inv F
  0.375000 -0.000000  0.083333    0.00130208  38 t-inv F
  0.500000 -0.000000  0.083333    0.00130208  39 t-inv F
 -0.375000  0.000000  0.083333    0.00130208  40 t-inv F
 -0.250000  0.000000  0.083333    0.00130208  41 t-inv F
 -0.125000  0.000000  0.083333    0.00130208  42 t-inv F
 -0.000000  0.125000  0.083333    0.00130208  43 t-inv F
  0.125000  0.125000  0.083333    0.00130208  44 t-inv F
  0.250000  0.125000  0.083333    0.00130208  45 t-inv F
  0.375000  0.125000  0.083333    0.00130208  46 t-inv F
  0.500000  0.125000  0.083333    0.00130208  47 t-inv F
 -0.375000  0.125000  0.083333    0.00130208  48 t-inv F
 -0.250000  0.125000  0.083333    0.00130208  49 t-inv F
 -0.125000  0.125000  0.083333    0.00130208  50 t-inv F
 -0.000000  0.250000  0.083333    0.00130208  51 t-inv F
  0.125000  0.250000  0.083333    0.00130208  52 t-inv F
  0.250000  0.250000  0.083333    0.00130208  53 t-inv F
  0.375000  0.250000  0.083333    0.00130208  54 t-inv F
  0.500000  0.250000  0.083333    0.00130208  55 t-inv F
 -0.375000  0.250000  0.083333    0.00130208  56 t-inv F
 -0.250000  0.250000  0.083333    0.00130208  57 t-inv F
 -0.125000  0.250000  0.083333    0.00130208  58 t-inv F
 -0.000000  0.375000  0.083333    0.00130208  59 t-inv F
  0.125000  0.375000  0.083333    0.00130208  60 t-inv F
  0.250000  0.375000  0.083333    0.00130208  61 t-inv F
  0.375000  0.375000  0.083333    0.00130208  62 t-inv F
  0.500000  0.375000  0.083333    0.00130208  63 t-inv F
 -0.375000  0.375000  0.083333    0.00130208  64 t-inv F
 -0.250000  0.375000  0.083333    0.00130208  65 t-inv F
 -0.125000  0.375000  0.083333    0.00130208  66 t-inv F
 -0.000000  0.500000  0.083333    0.00130208  67 t-inv F
  0.125000  0.500000  0.083333    0.00130208  68 t-inv F
  0.250000  0.500000  0.083333    0.00130208  69 t-inv F
  0.375000  0.500000  0.083333    0.00130208  70 t-inv F
  0.500000  0.500000  0.083333    0.00130208  71 t-inv F
 -0.375000  0.500000  0.083333    0.00130208  72 t-inv F
 -0.250000  0.500000  0.083333    0.00130208  73 t-inv F
 -0.125000  0.500000  0.083333    0.00130208  74 t-inv F
  0.000000 -0.375000  0.083333    0.00130208  75 t-inv F
  0.125000 -0.375000  0.083333    0.00130208  76 t-inv F
  0.250000 -0.375000  0.083333    0.00130208  77 t-inv F
  0.375000 -0.375000  0.083333    0.00130208  78 t-inv F
  0.500000 -0.375000  0.083333    0.00130208  79 t-inv F
 -0.375000 -0.375000  0.083333    0.00130208  80 t-inv F
 -0.250000 -0.375000  0.083333    0.00130208  81 t-inv F
 -0.125000 -0.375000  0.083333    0.00130208  82 t-inv F
  0.000000 -0.250000  0.083333    0.00130208  83 t-inv F
  0.125000 -0.250000  0.083333    0.00130208  84 t-inv F
  0.250000 -0.250000  0.083333    0.00130208  85 t-inv F
  0.375000 -0.250000  0.083333    0.00130208  86 t-inv F
  0.500000 -0.250000  0.083333    0.00130208  87 t-inv F
 -0.375000 -0.250000  0.083333    0.00130208  88 t-inv F
 -0.250000 -0.250000  0.083333    0.00130208  89 t-inv F
 -0.125000 -0.250000  0.083333    0.00130208  90 t-inv F
  0.000000 -0.125000  0.083333    0.00130208  91 t-inv F
  0.125000 -0.125000  0.083333    0.00130208  92 t-inv F
  0.250000 -0.125000  0.083333    0.00130208  93 t-inv F
  0.375000 -0.125000  0.083333    0.00130208  94 t-inv F
  0.500000 -0.125000  0.083333    0.00130208  95 t-inv F
 -0.375000 -0.125000  0.083333    0.00130208  96 t-inv F
 -0.250000 -0.125000  0.083333    0.00130208  97 t-inv F
 -0.125000 -0.125000  0.083333    0.00130208  98 t-inv F
  0.000000  0.000000  0.166667    0.00130208  99 t-inv F
  0.125000 -0.000000  0.166667    0.00130208 100 t-inv F
  0.250000 -0.000000  0.166667    0.00130208 101 t-inv F
  0.375000 -0.000000  0.166667    0.00130208 102 t-inv F
  0.500000 -0.000000  0.166667    0.00130208 103 t-inv F
 -0.375000  0.000000  0.166667    0.00130208 104 t-inv F
 -0.250000  0.000000  0.166667    0.00130208 105 t-inv F
 -0.125000  0.000000  0.166667    0.00130208 106 t-inv F
 -0.000000  0.125000  0.166667    0.00130208 107 t-inv F
  0.125000  0.125000  0.166667    0.00130208 108 t-inv F
  0.250000  0.125000  0.166667    0.00130208 109 t-inv F
  0.375000  0.125000  0.166667    0.00130208 110 t-inv F
  0.500000  0.125000  0.166667    0.00130208 111 t-inv F
 -0.375000  0.125000  0.166667    0.00130208 112 t-inv F
 -0.250000  0.125000  0.166667    0.00130208 113 t-inv F
 -0.125000  0.125000  0.166667    0.00130208 114 t-inv F
 -0.000000  0.250000  0.166667    0.00130208 115 t-inv F
  0.125000  0.250000  0.166667    0.00130208 116 t-inv F
  0.250000  0.250000  0.166667    0.00130208 117 t-inv F
  0.375000  0.250000  0.166667    0.00130208 118 t-inv F
  0.500000  0.250000  0.166667    0.00130208 119 t-inv F
 -0.375000  0.250000  0.166667    0.00130208 120 t-inv F
 -0.250000  0.250000  0.166667    0.00130208 121 t-inv F
 -0.125000  0.250000  0.166667    0.00130208 122 t-inv F
 -0.000000  0.375000  0.166667    0.00130208 123 t-inv F
  0.125000  0.375000  0.166667    0.00130208 124 t-inv F
  0.250000  0.375000  0.166667    0.00130208 125 t-inv F
  0.375000  0.375000  0.166667    0.00130208 126 t-inv F
  0.500000  0.375000  0.166667    0.00130208 127 t-inv F
 -0.375000  0.375000  0.166667    0.00130208 128 t-inv F
 -0.250000  0.375000  0.166667    0.00130208 129 t-inv F
 -0.125000  0.375000  0.166667    0.00130208 130 t-inv F
 -0.000000  0.500000  0.166667    0.00130208 131 t-inv F
  0.125000  0.500000  0.166667    0.00130208 132 t-inv F
  0.250000  0.500000  0.166667    0.00130208 133 t-inv F
  0.375000  0.500000  0.166667    0.00130208 134 t-inv F
  0.500000  0.500000  0.166667    0.00130208 135 t-inv F
 -0.375000  0.500000  0.166667    0.00130208 136 t-inv F
 -0.250000  0.500000  0.166667    0.00130208 137 t-inv F
 -0.125000  0.500000  0.166667    0.00130208 138 t-inv F
  0.000000 -0.375000  0.166667    0.00130208 139 t-inv F
  0.125000 -0.375000  0.166667    0.00130208 140 t-inv F
  0.250000 -0.375000  0.166667    0.00130208 141 t-inv F
  0.375000 -0.375000  0.166667    0.00130208 142 t-inv F
  0.500000 -0.375000  0.166667    0.00130208 143 t-inv F
 -0.375000 -0.375000  0.166667    0.00130208 144 t-inv F
 -0.250000 -0.375000  0.166667    0.00130208 145 t-inv F
 -0.125000 -0.375000  0.166667    0.00130208 146 t-inv F
  0.000000 -0.250000  0.166667    0.00130208 147 t-inv F
  0.125000 -0.250000  0.166667    0.00130208 148 t-inv F
  0.250000 -0.250000  0.166667    0.00130208 149 t-inv F
  0.375000 -0.250000  0.166667    0.00130208 150 t-inv F
  0.500000 -0.250000  0.166667    0.00130208 151 t-inv F
 -0.375000 -0.250000  0.166667    0.00130208 152 t-inv F
 -0.250000 -0.250000  0.166667    0.00130208 153 t-inv F
 -0.125000 -0.250000  0.166667    0.00130208 154 t-inv F
  0.000000 -0.125000  0.166667    0.00130208 155 t-inv F
  0.125000 -0.125000  0.166667    0.00130208 156 t-inv F
  0.250000 -0.125000  0.166667    0.00130208 157 t-inv F
  0.375000 -0.125000  0.166667    0.00130208 158 t-inv F
  0.500000 -0.125000  0.166667    0.00130208 159 t-inv F
 -0.375000 -0.125000  0.166667    0.00130208 160 t-inv F
 -0.250000 -0.125000  0.166667    0.00130208 161 t-inv F
 -0.125000 -0.125000  0.166667    0.00130208 162 t-inv F
  0.000000  0.000000  0.250000    0.00130208 163 t-inv F
  0.125000 -0.000000  0.250000    0.00130208 164 t-inv F
  0.250000 -0.000000  0.250000    0.00130208 165 t-inv F
  0.375000 -0.000000  0.250000    0.00130208 166 t-inv F
  0.500000 -0.000000  0.250000    0.00130208 167 t-inv F
 -0.375000  0.000000  0.250000    0.00130208 168 t-inv F
 -0.250000  0.000000  0.250000    0.00130208 169 t-inv F
 -0.125000  0.000000  0.250000    0.00130208 170 t-inv F
 -0.000000  0.125000  0.250000    0.00130208 171 t-inv F
  0.125000  0.125000  0.250000    0.00130208 172 t-inv F
  0.250000  0.125000  0.250000    0.00130208 173 t-inv F
  0.375000  0.125000  0.250000    0.00130208 174 t-inv F
  0.500000  0.125000  0.250000    0.00130208 175 t-inv F
 -0.375000  0.125000  0.250000    0.00130208 176 t-inv F
 -0.250000  0.125000  0.250000    0.00130208 177 t-inv F
 -0.125000  0.125000  0.250000    0.00130208 178 t-inv F
 -0.000000  0.250000  0.250000    0.00130208 179 t-inv F
  0.125000  0.250000  0.250000    0.00130208 180 t-inv F
  0.250000  0.250000  0.250000    0.00130208 181 t-inv F
  0.375000  0.250000  0.250000    0.00130208 182 t-inv F
  0.500000  0.250000  0.250000    0.00130208 183 t-inv F
 -0.375000  0.250000  0.250000    0.00130208 184 t-inv F
 -0.250000  0.250000  0.250000    0.00130208 185 t-inv F
 -0.125000  0.250000  0.250000    0.00130208 186 t-inv F
 -0.000000  0.375000  0.250000    0.00130208 187 t-inv F
  0.125000  0.375000  0.250000    0.00130208 188 t-inv F
  0.250000  0.375000  0.250000    0.00130208 189 t-inv F
  0.375000  0.375000  0.250000    0.00130208 190 t-inv F
  0.500000  0.375000  0.250000    0.00130208 191 t-inv F
 -0.375000  0.375000  0.250000    0.00130208 192 t-inv F
 -0.250000  0.375000  0.250000    0.00130208 193 t-inv F
 -0.125000  0.375000  0.250000    0.00130208 194 t-inv F
 -0.000000  0.500000  0.250000    0.00130208 195 t-inv F
  0.125000  0.500000  0.250000    0.00130208 196 t-inv F
  0.250000  0.500000  0.250000    0.00130208 197 t-inv F
  0.375000  0.500000  0.250000    0.00130208 198 t-inv F
  0.500000  0.500000  0.250000    0.00130208 199 t-inv F
 -0.375000  0.500000  0.250000    0.00130208 200 t-inv F
 -0.250000  0.500000  0.250000    0.00130208 201 t-inv F
 -0.125000  0.500000  0.250000    0.00130208 202 t-inv F
  0.000000 -0.375000  0.250000    0.00130208 203 t-inv F
  0.125000 -0.375000  0.250000    0.00130208 204 t-inv F
  0.250000 -0.375000  0.250000    0.00130208 205 t-inv F
  0.375000 -0.375000  0.250000    0.00130208 206 t-inv F
  0.500000 -0.375000  0.250000    0.00130208 207 t-inv F
 -0.375000 -0.375000  0.250000    0.00130208 208 t-inv F
 -0.250000 -0.375000  0.250000    0.00130208 209 t-inv F
 -0.125000 -0.375000  0.250000    0.00130208 210 t-inv F
  0.000000 -0.250000  0.250000    0.00130208 211 t-inv F
  0.125000 -0.250000  0.250000    0.00130208 212 t-inv F
  0.250000 -0.250000  0.250000    0.00130208 213 t-inv F
  0.375000 -0.250000  0.250000    0.00130208 214 t-inv F
  0.500000 -0.250000  0.250000    0.00130208 215 t-inv F
 -0.375000 -0.250000  0.250000    0.00130208 216 t-inv F
 -0.250000 -0.250000  0.250000    0.00130208 217 t-inv F
 -0.125000 -0.250000  0.250000    0.00130208 218 t-inv F
  0.000000 -0.125000  0.250000    0.00130208 219 t-inv F
  0.125000 -0.125000  0.250000    0.00130208 220 t-inv F
  0.250000 -0.125000  0.250000    0.00130208 221 t-inv F
  0.375000 -0.125000  0.250000    0.00130208 222 t-inv F
  0.500000 -0.125000  0.250000    0.00130208 223 t-inv F
 -0.375000 -0.125000  0.250000    0.00130208 224 t-inv F
 -0.250000 -0.125000  0.250000    0.00130208 225 t-inv F
 -0.125000 -0.125000  0.250000    0.00130208 226 t-inv F
  0.000000  0.000000  0.333333    0.00130208 227 t-inv F
  0.125000 -0.000000  0.333333    0.00130208 228 t-inv F
  0.250000 -0.000000  0.333333    0.00130208 229 t-inv F
  0.375000 -0.000000  0.333333    0.00130208 230 t-inv F
  0.500000 -0.000000  0.333333    0.00130208 231 t-inv F
 -0.375000  0.000000  0.333333    0.00130208 232 t-inv F
 -0.250000  0.000000  0.333333    0.00130208 233 t-inv F
 -0.125000  0.000000  0.333333    0.00130208 234 t-inv F
 -0.000000  0.125000  0.333333    0.00130208 235 t-inv F
  0.125000  0.125000  0.333333    0.00130208 236 t-inv F
  0.250000  0.125000  0.333333    0.00130208 237 t-inv F
  0.375000  0.125000  0.333333    0.00130208 238 t-inv F
  0.500000  0.125000  0.333333    0.00130208 239 t-inv F
 -0.375000  0.125000  0.333333    0.00130208 240 t-inv F
 -0.250000  0.125000  0.333333    0.00130208 241 t-inv F
 -0.125000  0.125000  0.333333    0.00130208 242 t-inv F
 -0.000000  0.250000  0.333333    0.00130208 243 t-inv F
  0.125000  0.250000  0.333333    0.00130208 244 t-inv F
  0.250000  0.250000  0.333333    0.00130208 245 t-inv F
  0.375000  0.250000  0.333333    0.00130208 246 t-inv F
  0.500000  0.250000  0.333333    0.00130208 247 t-inv F
 -0.375000  0.250000  0.333333    0.00130208 248 t-inv F
 -0.250000  0.250000  0.333333    0.00130208 249 t-inv F
 -0.125000  0.250000  0.333333    0.00130208 250 t-inv F
 -0.000000  0.375000  0.333333    0.00130208 251 t-inv F
  0.125000  0.375000  0.333333    0.00130208 252 t-inv F
  0.250000  0.375000  0.333333    0.00130208 253 t-inv F
  0.375000  0.375000  0.333333    0.00130208 254 t-inv F
  0.500000  0.375000  0.333333    0.00130208 255 t-inv F
 -0.375000  0.375000  0.333333    0.00130208 256 t-inv F
 -0.250000  0.375000  0.333333    0.00130208 257 t-inv F
 -0.125000  0.375000  0.333333    0.00130208 258 t-inv F
 -0.000000  0.500000  0.333333    0.00130208 259 t-inv F
  0.125000  0.500000  0.333333    0.00130208 260 t-inv F
  0.250000  0.500000  0.333333    0.00130208 261 t-inv F
  0.375000  0.500000  0.333333    0.00130208 262 t-inv F
  0.500000  0.500000  0.333333    0.00130208 263 t-inv F
 -0.375000  0.500000  0.333333    0.00130208 264 t-inv F
 -0.250000  0.500000  0.333333    0.00130208 265 t-inv F
 -0.125000  0.500000  0.333333    0.00130208 266 t-inv F
  0.000000 -0.375000  0.333333    0.00130208 267 t-inv F
  0.125000 -0.375000  0.333333    0.00130208 268 t-inv F
  0.250000 -0.375000  0.333333    0.00130208 269 t-inv F
  0.375000 -0.375000  0.333333    0.00130208 270 t-inv F
  0.500000 -0.375000  0.333333    0.00130208 271 t-inv F
 -0.375000 -0.375000  0.333333    0.00130208 272 t-inv F
 -0.250000 -0.375000  0.333333    0.00130208 273 t-inv F
 -0.125000 -0.375000  0.333333    0.00130208 274 t-inv F
  0.000000 -0.250000  0.333333    0.00130208 275 t-inv F
  0.125000 -0.250000  0.333333    0.00130208 276 t-inv F
  0.250000 -0.250000  0.333333    0.00130208 277 t-inv F
  0.375000 -0.250000  0.333333    0.00130208 278 t-inv F
  0.500000 -0.250000  0.333333    0.00130208 279 t-inv F
 -0.375000 -0.250000  0.333333    0.00130208 280 t-inv F
 -0.250000 -0.250000  0.333333    0.00130208 281 t-inv F
 -0.125000 -0.250000  0.333333    0.00130208 282 t-inv F
  0.000000 -0.125000  0.333333    0.00130208 283 t-inv F
  0.125000 -0.125000  0.333333    0.00130208 284 t-inv F
  0.250000 -0.125000  0.333333    0.00130208 285 t-inv F
  0.375000 -0.125000  0.333333    0.00130208 286 t-inv F
  0.500000 -0.125000  0.333333    0.00130208 287 t-inv F
 -0.375000 -0.125000  0.333333    0.00130208 288 t-inv F
 -0.250000 -0.125000  0.333333    0.00130208 289 t-inv F
 -0.125000 -0.125000  0.333333    0.00130208 290 t-inv F
  0.000000  0.000000  0.416667    0.00130208 291 t-inv F
  0.125000 -0.000000  0.416667    0.00130208 292 t-inv F
  0.250000 -0.000000  0.416667    0.00130208 293 t-inv F
  0.375000 -0.000000  0.416667    0.00130208 294 t-inv F
  0.500000 -0.000000  0.416667    0.00130208 295 t-inv F
 -0.375000  0.000000  0.416667    0.00130208 296 t-inv F
 -0.250000  0.000000  0.416667    0.00130208 297 t-inv F
 -0.125000  0.000000  0.416667    0.00130208 298 t-inv F
 -0.000000  0.125000  0.416667    0.00130208 299 t-inv F
  0.125000  0.125000  0.416667    0.00130208 300 t-inv F
  0.250000  0.125000  0.416667    0.00130208 301 t-inv F
  0.375000  0.125000  0.416667    0.00130208 302 t-inv F
  0.500000  0.125000  0.416667    0.00130208 303 t-inv F
 -0.375000  0.125000  0.416667    0.00130208 304 t-inv F
 -0.250000  0.125000  0.416667    0.00130208 305 t-inv F
 -0.125000  0.125000  0.416667    0.00130208 306 t-inv F
 -0.000000  0.250000  0.416667    0.00130208 307 t-inv F
  0.125000  0.250000  0.416667    0.00130208 308 t-inv F
  0.250000  0.250000  0.416667    0.00130208 309 t-inv F
  0.375000  0.250000  0.416667    0.00130208 310 t-inv F
  0.500000  0.250000  0.416667    0.00130208 311 t-inv F
 -0.375000  0.250000  0.416667    0.00130208 312 t-inv F
 -0.250000  0.250000  0.416667    0.00130208 313 t-inv F
 -0.125000  0.250000  0.416667    0.00130208 314 t-inv F
 -0.000000  0.375000  0.416667    0.00130208 315 t-inv F
  0.125000  0.375000  0.416667    0.00130208 316 t-inv F
  0.250000  0.375000  0.416667    0.00130208 317 t-inv F
  0.375000  0.375000  0.416667    0.00130208 318 t-inv F
  0.500000  0.375000  0.416667    0.00130208 319 t-inv F
 -0.375000  0.375000  0.416667    0.00130208 320 t-inv F
 -0.250000  0.375000  0.416667    0.00130208 321 t-inv F
 -0.125000  0.375000  0.416667    0.00130208 322 t-inv F
 -0.000000  0.500000  0.416667    0.00130208 323 t-inv F
  0.125000  0.500000  0.416667    0.00130208 324 t-inv F
  0.250000  0.500000  0.416667    0.00130208 325 t-inv F
  0.375000  0.500000  0.416667    0.00130208 326 t-inv F
  0.500000  0.500000  0.416667    0.00130208 327 t-inv F
 -0.375000  0.500000  0.416667    0.00130208 328 t-inv F
 -0.250000  0.500000  0.416667    0.00130208 329 t-inv F
 -0.125000  0.500000  0.416667    0.00130208 330 t-inv F
  0.000000 -0.375000  0.416667    0.00130208 331 t-inv F
  0.125000 -0.375000  0.416667    0.00130208 332 t-inv F
  0.250000 -0.375000  0.416667    0.00130208 333 t-inv F
  0.375000 -0.375000  0.416667    0.00130208 334 t-inv F
  0.500000 -0.375000  0.416667    0.00130208 335 t-inv F
 -0.375000 -0.375000  0.416667    0.00130208 336 t-inv F
 -0.250000 -0.375000  0.416667    0.00130208 337 t-inv F
 -0.125000 -0.375000  0.416667    0.00130208 338 t-inv F
  0.000000 -0.250000  0.416667    0.00130208 339 t-inv F
  0.125000 -0.250000  0.416667    0.00130208 340 t-inv F
  0.250000 -0.250000  0.416667    0.00130208 341 t-inv F
  0.375000 -0.250000  0.416667    0.00130208 342 t-inv F
  0.500000 -0.250000  0.416667    0.00130208 343 t-inv F
 -0.375000 -0.250000  0.416667    0.00130208 344 t-inv F
 -0.250000 -0.250000  0.416667    0.00130208 345 t-inv F
 -0.125000 -0.250000  0.416667    0.00130208 346 t-inv F
  0.000000 -0.125000  0.416667    0.00130208 347 t-inv F
  0.125000 -0.125000  0.416667    0.00130208 348 t-inv F
  0.250000 -0.125000  0.416667    0.00130208 349 t-inv F
  0.375000 -0.125000  0.416667    0.00130208 350 t-inv F
  0.500000 -0.125000  0.416667    0.00130208 351 t-inv F
 -0.375000 -0.125000  0.416667    0.00130208 352 t-inv F
 -0.250000 -0.125000  0.416667    0.00130208 353 t-inv F
 -0.125000 -0.125000  0.416667    0.00130208 354 t-inv F
  0.000000  0.000000  0.500000    0.00130208 355 t-inv F
  0.125000 -0.000000  0.500000    0.00130208 356 t-inv F
  0.250000 -0.000000  0.500000    0.00130208 357 t-inv F
  0.375000 -0.000000  0.500000    0.00130208 358 t-inv F
  0.500000 -0.000000  0.500000    0.00130208 359 t-inv F
 -0.000000  0.125000  0.500000    0.00130208 360 t-inv F
  0.125000  0.125000  0.500000    0.00130208 361 t-inv F
  0.250000  0.125000  0.500000    0.00130208 362 t-inv F
  0.375000  0.125000  0.500000    0.00130208 363 t-inv F
  0.500000  0.125000  0.500000    0.00130208 364 t-inv F
 -0.375000  0.125000  0.500000    0.00130208 365 t-inv F
 -0.250000  0.125000  0.500000    0.00130208 366 t-inv F
 -0.125000  0.125000  0.500000    0.00130208 367 t-inv F
 -0.000000  0.250000  0.500000    0.00130208 368 t-inv F
  0.125000  0.250000  0.500000    0.00130208 369 t-inv F
  0.250000  0.250000  0.500000    0.00130208 370 t-inv F
  0.375000  0.250000  0.500000    0.00130208 371 t-inv F
  0.500000  0.250000  0.500000    0.00130208 372 t-inv F
 -0.375000  0.250000  0.500000    0.00130208 373 t-inv F
 -0.250000  0.250000  0.500000    0.00130208 374 t-inv F
 -0.125000  0.250000  0.500000    0.00130208 375 t-inv F
 -0.000000  0.375000  0.500000    0.00130208 376 t-inv F
  0.125000  0.375000  0.500000    0.00130208 377 t-inv F
  0.250000  0.375000  0.500000    0.00130208 378 t-inv F
  0.375000  0.375000  0.500000    0.00130208 379 t-inv F
  0.500000  0.375000  0.500000    0.00130208 380 t-inv F
 -0.375000  0.375000  0.500000    0.00130208 381 t-inv F
 -0.250000  0.375000  0.500000    0.00130208 382 t-inv F
 -0.125000  0.375000  0.500000    0.00130208 383 t-inv F
 -0.000000  0.500000  0.500000    0.00130208 384 t-inv F
  0.125000  0.500000  0.500000    0.00130208 385 t-inv F
  0.250000  0.500000  0.500000    0.00130208 386 t-inv F
  0.375000  0.500000  0.500000    0.00130208 387 t-inv F
  0.500000  0.500000  0.500000    0.00130208 388 t-inv F
 -0.125000  0.000000  0.000000    0.00130208   2 t-inv F
 -0.250000  0.000000  0.000000    0.00130208   3 t-inv F
 -0.375000  0.000000  0.000000    0.00130208   4 t-inv F
  0.000000 -0.125000  0.000000    0.00130208   6 t-inv F
 -0.125000 -0.125000  0.000000    0.00130208   7 t-inv F
 -0.250000 -0.125000  0.000000    0.00130208   8 t-inv F
 -0.375000 -0.125000  0.000000    0.00130208   9 t-inv F
 -0.500000 -0.125000  0.000000    0.00130208  10 t-inv F
  0.375000 -0.125000  0.000000    0.00130208  11 t-inv F
  0.250000 -0.125000  0.000000    0.00130208  12 t-inv F
  0.125000 -0.125000  0.000000    0.00130208  13 t-inv F
  0.000000 -0.250000  0.000000    0.00130208  14 t-inv F
 -0.125000 -0.250000  0.000000    0.00130208  15 t-inv F
 -0.250000 -0.250000  0.000000    0.00130208  16 t-inv F
 -0.375000 -0.250000  0.000000    0.00130208  17 t-inv F
 -0.500000 -0.250000  0.000000    0.00130208  18 t-inv F
  0.375000 -0.250000  0.000000    0.00130208  19 t-inv F
  0.250000 -0.250000  0.000000    0.00130208  20 t-inv F
  0.125000 -0.250000  0.000000    0.00130208  21 t-inv F
  0.000000 -0.375000  0.000000    0.00130208  22 t-inv F
 -0.125000 -0.375000  0.000000    0.00130208  23 t-inv F
 -0.250000 -0.375000  0.000000    0.00130208  24 t-inv F
 -0.375000 -0.375000  0.000000    0.00130208  25 t-inv F
 -0.500000 -0.375000  0.000000    0.00130208  26 t-inv F
  0.375000 -0.375000  0.000000    0.00130208  27 t-inv F
  0.250000 -0.375000  0.000000    0.00130208  28 t-inv F
  0.125000 -0.375000  0.000000    0.00130208  29 t-inv F
 -0.125000 -0.500000  0.000000    0.00130208  31 t-inv F
 -0.250000 -0.500000  0.000000    0.00130208  32 t-inv F
 -0.375000 -0.500000  0.000000    0.00130208  33 t-inv F
  0.000000  0.000000 -0.083333    0.00130208  35 t-inv F
 -0.125000  0.000000 -0.083333    0.00130208  36 t-inv F
 -0.250000  0.000000 -0.083333    0.00130208  37 t-inv F
 -0.375000  0.000000 -0.083333    0.00130208  38 t-inv F
 -0.500000  0.000000 -0.083333    0.00130208  39 t-inv F
  0.375000 -0.000000 -0.083333    0.00130208  40 t-inv F
  0.250000 -0.000000 -0.083333    0.00130208  41 t-inv F
  0.125000 -0.000000 -0.083333    0.00130208  42 t-inv F
  0.000000 -0.125000 -0.083333    0.00130208  43 t-inv F
 -0.125000 -0.125000 -0.083333    0.00130208  44 t-inv F
 -0.250000 -0.125000 -0.083333    0.00130208  45 t-inv F
 -0.375000 -0.125000 -0.083333    0.00130208  46 t-inv F
 -0.500000 -0.125000 -0.083333    0.00130208  47 t-inv F
  0.375000 -0.125000 -0.083333    0.00130208  48 t-inv F
  0.250000 -0.125000 -0.083333    0.00130208  49 t-inv F
  0.125000 -0.125000 -0.083333    0.00130208  50 t-inv F
  0.000000 -0.250000 -0.083333    0.00130208  51 t-inv F
 -0.125000 -0.250000 -0.083333    0.00130208  52 t-inv F
 -0.250000 -0.250000 -0.083333    0.00130208  53 t-inv F
 -0.375000 -0.250000 -0.083333    0.00130208  54 t-inv F
 -0.500000 -0.250000 -0.083333    0.00130208  55 t-inv F
  0.375000 -0.250000 -0.083333    0.00130208  56 t-inv F
  0.250000 -0.250000 -0.083333    0.00130208  57 t-inv F
  0.125000 -0.250000 -0.083333    0.00130208  58 t-inv F
  0.000000 -0.375000 -0.083333    0.00130208  59 t-inv F
 -0.125000 -0.375000 -0.083333    0.00130208  60 t-inv F
 -0.250000 -0.375000 -0.083333    0.00130208  61 t-inv F
 -0.375000 -0.375000 -0.083333    0.00130208  62 t-inv F
 -0.500000 -0.375000 -0.083333    0.00130208  63 t-inv F
  0.375000 -0.375000 -0.083333    0.00130208  64 t-inv F
  0.250000 -0.375000 -0.083333    0.00130208  65 t-inv F
  0.125000 -0.375000 -0.083333    0.00130208  66 t-inv F
  0.000000 -0.500000 -0.083333    0.00130208  67 t-inv F
 -0.125000 -0.500000 -0.083333    0.00130208  68 t-inv F
 -0.250000 -0.500000 -0.083333    0.00130208  69 t-inv F
 -0.375000 -0.500000 -0.083333    0.00130208  70 t-inv F
 -0.500000 -0.500000 -0.083333    0.00130208  71 t-inv F
  0.375000 -0.500000 -0.083333    0.00130208  72 t-inv F
  0.250000 -0.500000 -0.083333    0.00130208  73 t-inv F
  0.125000 -0.500000 -0.083333    0.00130208  74 t-inv F
 -0.000000  0.375000 -0.083333    0.00130208  75 t-inv F
 -0.125000  0.375000 -0.083333    0.00130208  76 t-inv F
 -0.250000  0.375000 -0.083333    0.00130208  77 t-inv F
 -0.375000  0.375000 -0.083333    0.00130208  78 t-inv F
 -0.500000  0.375000 -0.083333    0.00130208  79 t-inv F
  0.375000  0.375000 -0.083333    0.00130208  80 t-inv F
  0.250000  0.375000 -0.083333    0.00130208  81 t-inv F
  0.125000  0.375000 -0.083333    0.00130208  82 t-inv F
 -0.000000  0.250000 -0.083333    0.00130208  83 t-inv F
 -0.125000  0.250000 -0.083333    0.00130208  84 t-inv F
 -0.250000  0.250000 -0.083333    0.00130208  85 t-inv F
 -0.375000  0.250000 -0.083333    0.00130208  86 t-inv F
 -0.500000  0.250000 -0.083333    0.00130208  87 t-inv F
  0.375000  0.250000 -0.083333    0.00130208  88 t-inv F
  0.250000  0.250000 -0.083333    0.00130208  89 t-inv F
  0.125000  0.250000 -0.083333    0.00130208  90 t-inv F
 -0.000000  0.125000 -0.083333    0.00130208  91 t-inv F
 -0.125000  0.125000 -0.083333    0.00130208  92 t-inv F
 -0.250000  0.125000 -0.083333    0.00130208  93 t-inv F
 -0.375000  0.125000 -0.083333    0.00130208  94 t-inv F
 -0.500000  0.125000 -0.083333    0.00130208  95 t-inv F
  0.375000  0.125000 -0.083333    0.00130208  96 t-inv F
  0.250000  0.125000 -0.083333    0.00130208  97 t-inv F
  0.125000  0.125000 -0.083333    0.00130208  98 t-inv F
  0.000000  0.000000 -0.166667    0.00130208  99 t-inv F
 -0.125000  0.000000 -0.166667    0.00130208 100 t-inv F
 -0.250000  0.000000 -0.166667    0.00130208 101 t-inv F
 -0.375000  0.000000 -0.166667    0.00130208 102 t-inv F
 -0.500000  0.000000 -0.166667    0.00130208 103 t-inv F
  0.375000 -0.000000 -0.166667    0.00130208 104 t-inv F
  0.250000 -0.000000 -0.166667    0.00130208 105 t-inv F
  0.125000 -0.000000 -0.166667    0.00130208 106 t-inv F
  0.000000 -0.125000 -0.166667    0.00130208 107 t-inv F
 -0.125000 -0.125000 -0.166667    0.00130208 108 t-inv F
 -0.250000 -0.125000 -0.166667    0.00130208 109 t-inv F
 -0.375000 -0.125000 -0.166667    0.00130208 110 t-inv F
 -0.500000 -0.125000 -0.166667    0.00130208 111 t-inv F
  0.375000 -0.125000 -0.166667    0.00130208 112 t-inv F
  0.250000 -0.125000 -0.166667    0.00130208 113 t-inv F
  0.125000 -0.125000 -0.166667    0.00130208 114 t-inv F
  0.000000 -0.250000 -0.166667    0.00130208 115 t-inv F
 -0.125000 -0.250000 -0.166667    0.00130208 116 t-inv F
 -0.250000 -0.250000 -0.166667    0.00130208 117 t-inv F
 -0.375000 -0.250000 -0.166667    0.00130208 118 t-inv F
 -0.500000 -0.250000 -0.166667    0.00130208 119 t-inv F
  0.375000 -0.250000 -0.166667    0.00130208 120 t-inv F
  0.250000 -0.250000 -0.166667    0.00130208 121 t-inv F
  0.125000 -0.250000 -0.166667    0.00130208 122 t-inv F
  0.000000 -0.375000 -0.166667    0.00130208 123 t-inv F
 -0.125000 -0.375000 -0.166667    0.00130208 124 t-inv F
 -0.250000 -0.375000 -0.166667    0.00130208 125 t-inv F
 -0.375000 -0.375000 -0.166667    0.00130208 126 t-inv F
 -0.500000 -0.375000 -0.166667    0.00130208 127 t-inv F
  0.375000 -0.375000 -0.166667    0.00130208 128 t-inv F
  0.250000 -0.375000 -0.166667    0.00130208 129 t-inv F
  0.125000 -0.375000 -0.166667    0.00130208 130 t-inv F
  0.000000 -0.500000 -0.166667    0.00130208 131 t-inv F
 -0.125000 -0.500000 -0.166667    0.00130208 132 t-inv F
 -0.250000 -0.500000 -0.166667    0.00130208 133 t-inv F
 -0.375000 -0.500000 -0.166667    0.00130208 134 t-inv F
 -0.500000 -0.500000 -0.166667    0.00130208 135 t-inv F
  0.375000 -0.500000 -0.166667    0.00130208 136 t-inv F
  0.250000 -0.500000 -0.166667    0.00130208 137 t-inv F
  0.125000 -0.500000 -0.166667    0.00130208 138 t-inv F
 -0.000000  0.375000 -0.166667    0.00130208 139 t-inv F
 -0.125000  0.375000 -0.166667    0.00130208 140 t-inv F
 -0.250000  0.375000 -0.166667    0.00130208 141 t-inv F
 -0.375000  0.375000 -0.166667    0.00130208 142 t-inv F
 -0.500000  0.375000 -0.166667    0.00130208 143 t-inv F
  0.375000  0.375000 -0.166667    0.00130208 144 t-inv F
  0.250000  0.375000 -0.166667    0.00130208 145 t-inv F
  0.125000  0.375000 -0.166667    0.00130208 146 t-inv F
 -0.000000  0.250000 -0.166667    0.00130208 147 t-inv F
[...]
      8      -0.0035      0.00000
      9      -0.0018      0.00000
     10       0.0016      0.00000
     11      -0.0833      0.00000
     12       0.0832      0.00000
     13      -0.3249      0.00000
     14       0.3250      0.00000
     15      -0.5847      0.00000
     16       0.5850      0.00000
     17      -0.3215      0.00000
     18       0.3219      0.00000
     19      -0.4655      0.00000
     20       0.4656      0.00000
     21      -0.3257      0.00000
     22       0.3257      0.00000
     23      -0.6633      0.00000
     24       0.6633      0.00000

 k-point 388 :       0.5000    0.5000    0.5000
  band No.  band energies     occupation 
      1      -0.0828      0.00000
      2       0.0832      0.00000
      3       0.0099      0.00000
      4      -0.0102      0.00000
      5       0.0142      0.00000
      6      -0.0144      0.00000
      7       0.0107      0.00000
      8      -0.0109      0.00000
      9      -0.0022      0.00000
     10       0.0020      0.00000
     11      -0.0805      0.00000
     12       0.0804      0.00000
     13      -0.3170      0.00000
     14       0.3171      0.00000
     15      -0.5176      0.00000
     16       0.5179      0.00000
     17      -0.0837      0.00000
     18       0.0840      0.00000
     19      -0.4079      0.00000
     20       0.4080      0.00000
     21      -0.1260      0.00000
     22       0.1260      0.00000
     23      -0.7815      0.00000
     24       0.7815      0.00000


------------------------ aborting loop because EDIFF is reached ----------------------------------------


    FORLOC:  cpu time    0.0012: real time    0.0012
    FORNL :  cpu time    0.7515: real time    0.7515
    STRESS:  cpu time    7.3891: real time    7.3909
    FORCOR:  cpu time    0.0173: real time    0.0179
    OFIELD:  cpu time    0.0002: real time    0.0002
    FORLOC:  cpu time    0.0022: real time    0.0022
    FORNL :  cpu time    0.7522: real time    0.7524
    STRESS:  cpu time    7.3653: real time    7.3669
    FORCOR:  cpu time    0.0168: real time    0.0168
    OFIELD:  cpu time    0.0001: real time    0.0001
    FORLOC:  cpu time    0.0018: real time    0.0018
    FORNL :  cpu time    0.7532: real time    0.7534
    STRESS:  cpu time    7.3656: real time    7.3673
    FORCOR:  cpu time    0.0169: real time    0.0169
    OFIELD:  cpu time    0.0001: real time    0.0001
    FORLOC:  cpu time    0.0018: real time    0.0018
    FORNL :  cpu time    0.7509: real time    0.7512
    STRESS:  cpu time    7.3523: real time    7.3708
    FORCOR:  cpu time    0.0169: real time    0.0169
    OFIELD:  cpu time    0.0001: real time    0.0001

 INTERNAL STRAIN TENSOR  FOR ION    3  DIRECTION 3   (eV/Angst):
 -----------------------------------------------------------------------------
    -0.00230  0.02496 -0.00004
    -0.02581  0.00366  0.17950
    -0.00005  0.22532 -0.00081


 POSITION                   FORCE-CONSTANT FOR ION    3 DIRECTION 3 (eV/Angst/Angst)
 -----------------------------------------------------------------------------------
      0.00000      4.84697      1.15060        -0.000006     -0.000135      0.000172
     -0.00000      7.47229      3.45181        -0.000007      0.000114      0.265472
      0.00000      1.86358      1.15060         0.000022      0.000037     -0.766548
      0.00000     10.45567      3.45181        -0.000009     -0.000016      0.500903
 -----------------------------------------------------------------------------------
    total drift:                               -0.000000      0.000000      0.000000


 BORN EFFECTIVE CHARGE FOR ION    3 DIRECTION 3 :  -0.000  -0.000  -2.203
                   rigid augmentation           :   0.000   0.000   1.393
                   ionic contribution           :   0.000   0.000   7.000
                   Berry contribution           :  -0.000  -0.000 -10.596


--------------------------------------------------------------------------------------------------------


  LATTYP: Found a base centered orthorhombic cell.
 ALAT       =     4.5887499163
 B/A-ratio  =     2.6846643447
 C/A-ratio  =     1.0029787220
  
  Lattice vectors:
  
 A1 = (   2.2943749581,   6.1596266435,   0.0000000000)
 A2 = (   2.2943749581,  -6.1596266435,   0.0000000000)
 A3 = (   0.0000000000,   0.0000000000,  -4.6024185265)


Analysis of symmetry for initial positions (statically):
=====================================================================
 Subroutine PRICEL returns:
 Original cell was already a primitive cell.
 

 Routine SETGRP: Setting up the symmetry group for a 
 base centered orthorhombic supercell.


 Subroutine GETGRP returns: Found  2 space group operations
 (whereof  1 operations were pure point group operations)
 out of a pool of  8 trial point group operations.


The static configuration has the point symmetry C_1 .
 The point group associated with its full space group is S_2 .


Analysis of symmetry for dynamics (positions and initial velocities):
=====================================================================
 Subroutine PRICEL returns:
 Original cell was already a primitive cell.
 

 Routine SETGRP: Setting up the symmetry group for a 
 base centered orthorhombic supercell.


 Subroutine GETGRP returns: Found  2 space group operations
 (whereof  1 operations were pure point group operations)
 out of a pool of  8 trial point group operations.


The dynamic configuration has the point symmetry C_1 .
 The point group associated with its full space group is S_2 .


 Subroutine INISYM returns: Found  2 space group operations
 (whereof  1 operations are pure point group operations),
 and found     1 'primitive' translations



--------------------------------------------------------------------------------------------------------




 MACROSCOPIC STATIC DIELECTRIC TENSOR (including local field effects in DFT)
 ------------------------------------------------------
           6.485725     0.000001     0.000000
          -0.000001     7.596175     0.000000
           0.000001    -0.000000     8.023807
 ------------------------------------------------------


 PIEZOELECTRIC TENSOR  for field in x, y, z        (e  Angst)
          XX          YY          ZZ          XY          YZ          ZX
  --------------------------------------------------------------------------------
  x     0.00042     0.00039    -0.00083    -0.00025     0.00000    -0.00268
  y     0.01009    -0.00268    -0.00700     0.00044     0.03551     0.00000
  z    -0.00090    -0.00668     0.00348    -0.00000     0.00005     0.00003

 PIEZOELECTRIC TENSOR  for field in x, y, z        (C/m^2)
          XX          YY          ZZ          XY          YZ          ZX
  --------------------------------------------------------------------------------
  x     0.00000     0.00000     0.00000     0.00000     0.00000     0.00000
  y     0.00000     0.00000     0.00000     0.00000     0.00000     0.00000
  z     0.00000     0.00000     0.00000     0.00000     0.00000     0.00000
 
 BORN EFFECTIVE CHARGES (in e, cummulative output)
 -------------------------------------------------
 ion    1
    1     2.12756    -0.00003     0.00000
    2     0.00012     2.46959    -0.00001
    3    -0.00000     0.00107     2.20282
 ion    2
    1     2.12760     0.00003     0.00000
    2    -0.00012     2.46952     0.00002
    3    -0.00000    -0.00107     2.20282
 ion    3
    1    -2.12754    -0.00002    -0.00000
    2    -0.00010    -2.46950     0.00027
    3     0.00000     0.00035    -2.20282
 ion    4
    1    -2.12762     0.00002    -0.00000
    2     0.00010    -2.46961    -0.00027
    3     0.00000    -0.00035    -2.20283

 INTERNAL STRAIN TENSOR FOR ION    1 for displacements in x,y,z  (eV/Angst):
          X           Y           Z          XY          YZ          ZX
  --------------------------------------------------------------------------------
  x     0.00028     0.00037    -0.00061    -0.38492    -0.00000     0.00556
  y    -2.31543    -4.05902    -1.25370    -0.00041    -0.05533    -0.00001
  z     0.00789    -0.00856     0.00326    -0.00715     0.41323     0.00002

 INTERNAL STRAIN TENSOR FOR ION    2 for displacements in x,y,z  (eV/Angst):
          X           Y           Z          XY          YZ          ZX
  --------------------------------------------------------------------------------
  x    -0.00028    -0.00037     0.00061     0.38492     0.00000    -0.00556
  y     2.31543     4.05902     1.25370     0.00041     0.05533     0.00001
  z    -0.00789     0.00856    -0.00326     0.00715    -0.41323    -0.00002

 INTERNAL STRAIN TENSOR FOR ION    3 for displacements in x,y,z  (eV/Angst):
          X           Y           Z          XY          YZ          ZX
  --------------------------------------------------------------------------------
  x    -0.00027    -0.00024     0.00059     0.05437     0.00008     0.00867
  y    -0.16324     3.53956    -0.18142     0.00060     0.02690     0.00000
  z    -0.00230     0.00366    -0.00081    -0.02581     0.22532    -0.00004

 INTERNAL STRAIN TENSOR FOR ION    4 for displacements in x,y,z  (eV/Angst):
          X           Y           Z          XY          YZ          ZX
  --------------------------------------------------------------------------------
  x     0.00027     0.00024    -0.00059    -0.05437    -0.00008    -0.00867
  y     0.16324    -3.53956     0.18142    -0.00060    -0.02690    -0.00000
  z     0.00230    -0.00366     0.00081     0.02581    -0.22532     0.00004


--------------------------------------------------------------------------------------------------------


 
 SECOND DERIVATIVES (NOT SYMMETRIZED)
 ------------------------------------
               1X          1Y          1Z          2X          2Y          2Z          3X          3Y          3Z          4X          4Y          4Z 
  1X    -0.312333    0.000421    0.000016   -0.109693   -0.000150   -0.000001    0.095979   -0.000103   -0.000005    0.326046   -0.000168   -0.000010
  1Y    -0.000035   -2.031078    0.000356    0.000005    1.015693   -0.000019    0.000013    1.019883   -0.000172    0.000018   -0.004498   -0.000166
  1Z    -0.000010   -0.000426   -0.607214    0.000002    0.000229    0.386861    0.000001    0.000022   -0.021203    0.000008    0.000175    0.241556
  2X    -0.109693   -0.000150   -0.000001   -0.312333    0.000421    0.000016    0.326046   -0.000168   -0.000010    0.095979   -0.000103   -0.000005
  2Y     0.000005    1.015693   -0.000019   -0.000035   -2.031078    0.000356    0.000018   -0.004498   -0.000166    0.000013    1.019883   -0.000172
  2Z     0.000002    0.000229    0.386861   -0.000010   -0.000426   -0.607214    0.000008    0.000175    0.241556    0.000001    0.000022   -0.021203
  3X     0.099378    0.000028    0.000010    0.334133    0.000033   -0.000020   -0.902693   -0.000084    0.000017    0.469181    0.000022   -0.000007
  3Y    -0.000070    1.017141   -0.000098   -0.000033   -0.007244    0.000309    0.000148   -1.612085   -0.000099   -0.000046    0.602188   -0.000112
  3Z    -0.000006   -0.000135    0.000172   -0.000007    0.000114    0.265472    0.000022    0.000037   -0.766548   -0.000009   -0.000016    0.500903
  4X     0.334133    0.000033   -0.000020    0.099378    0.000028    0.000010    0.469181    0.000022   -0.000007   -0.902693   -0.000084    0.000017
  4Y    -0.000033   -0.007244    0.000309   -0.000070    1.017141   -0.000098   -0.000046    0.602188   -0.000112    0.000148   -1.612085   -0.000099
  4Z    -0.000007    0.000114    0.265472   -0.000006   -0.000135    0.000172   -0.000009   -0.000016    0.500903    0.000022    0.000037   -0.766548
 
 
 Eigenvectors and eigenvalues of the dynamical matrix
 ----------------------------------------------------
 
 
   1 f  =    3.040841 THz    19.106165 2PiTHz  101.431523 cm-1    12.575911 meV
             X         Y         Z           dx          dy          dz
      0.000000  4.846965  1.150605    -0.000028    0.486076   -0.000028  
     -0.000000  7.472290  3.451814     0.000028   -0.486076    0.000028  
      0.000000  1.863581  1.150605     0.000012   -0.513546    0.000035  
      0.000000 10.455674  3.451814    -0.000012    0.513546   -0.000035  
 
   2 f  =    2.291342 THz    14.396929 2PiTHz   76.430951 cm-1     9.476234 meV
             X         Y         Z           dx          dy          dz
      0.000000  4.846965  1.150605    -0.000091    0.453683    0.000044  
     -0.000000  7.472290  3.451814    -0.000091    0.453683    0.000044  
      0.000000  1.863581  1.150605     0.000020   -0.542376    0.000005  
      0.000000 10.455674  3.451814     0.000020   -0.542376    0.000005  
 
   3 f  =    2.070583 THz    13.009854 2PiTHz   69.067201 cm-1     8.563245 meV
             X         Y         Z           dx          dy          dz
      0.000000  4.846965  1.150605     0.107483   -0.000279   -0.000111  
     -0.000000  7.472290  3.451814    -0.107483    0.000279    0.000111  
      0.000000  1.863581  1.150605     0.698890   -0.000254   -0.000325  
      0.000000 10.455674  3.451814    -0.698890    0.000254    0.000325  
 
   4 f  =    2.026057 THz    12.730092 2PiTHz   67.581989 cm-1     8.379102 meV
             X         Y         Z           dx          dy          dz
      0.000000  4.846965  1.150605     0.000053    0.002099    0.226846  
     -0.000000  7.472290  3.451814    -0.000053   -0.002099   -0.226846  
      0.000000  1.863581  1.150605     0.000341    0.002021    0.669725  
      0.000000 10.455674  3.451814    -0.000341   -0.002021   -0.669725  
 
   5 f  =    2.002805 THz    12.583994 2PiTHz   66.806377 cm-1     8.282938 meV
             X         Y         Z           dx          dy          dz
      0.000000  4.846965  1.150605    -0.000022    0.513542   -0.000740  
     -0.000000  7.472290  3.451814     0.000022   -0.513542    0.000740  
      0.000000  1.863581  1.150605     0.000384    0.486072   -0.002826  
      0.000000 10.455674  3.451814    -0.000384   -0.486072    0.002826  
 
   6 f  =    1.491431 THz     9.370940 2PiTHz   49.748797 cm-1     6.168067 meV
             X         Y         Z           dx          dy          dz
      0.000000  4.846965  1.150605     0.449373    0.000089   -0.000013  
     -0.000000  7.472290  3.451814     0.449373    0.000089   -0.000013  
      0.000000  1.863581  1.150605    -0.545952   -0.000022    0.000031  
      0.000000 10.455674  3.451814    -0.545952   -0.000022    0.000031  
 
   7 f  =    1.373954 THz     8.632807 2PiTHz   45.830170 cm-1     5.682219 meV
             X         Y         Z           dx          dy          dz
      0.000000  4.846965  1.150605    -0.000001   -0.000123    0.669731  
     -0.000000  7.472290  3.451814     0.000001    0.000123   -0.669731  
      0.000000  1.863581  1.150605     0.000000   -0.000169   -0.226847  
      0.000000 10.455674  3.451814    -0.000000    0.000169    0.226847  
 
   8 f  =    1.133204 THz     7.120133 2PiTHz   37.799626 cm-1     4.686558 meV
             X         Y         Z           dx          dy          dz
      0.000000  4.846965  1.150605    -0.000018    0.000310   -0.428095  
     -0.000000  7.472290  3.451814    -0.000018    0.000310   -0.428095  
      0.000000  1.863581  1.150605     0.000027    0.000230    0.562792  
      0.000000 10.455674  3.451814     0.000027    0.000230    0.562792  
 
   9 f  =    0.583205 THz     3.664387 2PiTHz   19.453632 cm-1     2.411944 meV
             X         Y         Z           dx          dy          dz
      0.000000  4.846965  1.150605     0.698890    0.000079    0.000001  
     -0.000000  7.472290  3.451814    -0.698890   -0.000079   -0.000001  
      0.000000  1.863581  1.150605    -0.107483    0.000034   -0.000001  
      0.000000 10.455674  3.451814     0.107483   -0.000034    0.000001  
 
  10 f/i=    0.003051 THz     0.019171 2PiTHz    0.101776 cm-1     0.012619 meV
             X         Y         Z           dx          dy          dz
      0.000000  4.846965  1.150605    -0.010525   -0.542234    0.006692  
     -0.000000  7.472290  3.451814    -0.010525   -0.542234    0.006692  
      0.000000  1.863581  1.150605    -0.008733   -0.453563    0.005575  
      0.000000 10.455674  3.451814    -0.008733   -0.453563    0.005575  
 
  11 f/i=    0.009829 THz     0.061755 2PiTHz    0.327849 cm-1     0.040648 meV
             X         Y         Z           dx          dy          dz
      0.000000  4.846965  1.150605     0.545851   -0.010453    0.000119  
     -0.000000  7.472290  3.451814     0.545851   -0.010453    0.000119  
      0.000000  1.863581  1.150605     0.449288   -0.008819    0.000096  
      0.000000 10.455674  3.451814     0.449288   -0.008819    0.000096  
 
  12 f/i=    0.050994 THz     0.320402 2PiTHz    1.700961 cm-1     0.210892 meV
             X         Y         Z           dx          dy          dz
      0.000000  4.846965  1.150605     0.000006    0.006651    0.562752  
     -0.000000  7.472290  3.451814     0.000006    0.006651    0.562752  
      0.000000  1.863581  1.150605     0.000017    0.005613    0.428058  
      0.000000 10.455674  3.451814     0.000017    0.005613    0.428058  
 


--------------------------------------------------------------------------------------------------------




 MACROSCOPIC STATIC DIELECTRIC TENSOR IONIC CONTRIBUTION
 ------------------------------------------------------
          29.436337     0.002340     0.001000
           0.002340    16.754890    -0.000471
           0.001000    -0.000471    55.314285
 ------------------------------------------------------


 ELASTIC MODULI IONIC CONTR (kBar)
 Direction    XX          YY          ZZ          XY          YZ          ZX
 --------------------------------------------------------------------------------
 XX         -55.0291    -49.0006    -30.9496      0.0025     -1.0059     -0.0002
 YY         -49.0006   -195.5133    -23.8664     -0.0147     -1.9781     -0.0005
 ZZ         -30.9496    -23.8664    -17.4968     -0.0519     -0.5260      0.0003
 XY           0.0025     -0.0147     -0.0519    -23.5027      0.1286      0.2349
 YZ          -1.0059     -1.9781     -0.5260      0.1286     -4.5318     -0.0001
 ZX          -0.0002     -0.0005      0.0003      0.2349     -0.0001     -0.0039
 --------------------------------------------------------------------------------


 PIEZOELECTRIC TENSOR IONIC CONTR  for field in x, y, z        (C/m^2)
          XX          YY          ZZ          XY          YZ          ZX
  --------------------------------------------------------------------------------
  x     0.00001     0.00000     0.00001     0.00002     0.00000    -0.00000
  y    -0.00002     0.00001    -0.00001    -0.00008     0.00000     0.00000
  z    -0.00029    -0.00015    -0.00016    -0.00000    -0.00000     0.00000


--------------------------------------------------------------------------------------------------------


     LOOP+:  cpu time 2311.6367: real time 2314.0699
    4ORBIT:  cpu time    0.0000: real time    0.0000

 total amount of memory used by VASP MPI-rank0   454143. kBytes
=======================================================================

   base      :      30000. kBytes
   nonl-proj :     394458. kBytes
   fftplans  :       1579. kBytes
   grid      :       5696. kBytes
   one-center:         62. kBytes
   wavefun   :      22348. kBytes
 
  
  
 General timing and accounting informations for this job:
 ========================================================
  
                  Total CPU time used (sec):     2317.988
                            User time (sec):     2270.498
                          System time (sec):       47.491
                         Elapsed time (sec):     2320.370
  
                   Maximum memory used (kb):      842136.
                   Average memory used (kb):           0.
  
                          Minor page faults:       504631
                          Major page faults:           14
                 Voluntary context switches:         4188
