<?xml version="1.0" encoding="ISO-8859-1"?>
<modeling>
 <generator>
  <i name="program" type="string">vasp </i>
  <i name="version" type="string">5.4.4.18Apr17-6-g9f103f2a35  </i>
  <i name="subversion" type="string">(build Aug 24 2017 11:22:49) complex            parallel </i>
  <i name="platform" type="string">LinuxIFC </i>
  <i name="date" type="string">2023 12 30 </i>
  <i name="time" type="string">15:49:15 </i>
 </generator>
 <incar>
  <i type="string" name="PREC">accurate</i>
  <i type="string" name="ALGO"> Normal</i>
  <i type="int" name="NELM">   100</i>
  <i type="int" name="IBRION">     8</i>
  <i name="EDIFF">      0.00000001</i>
  <i name="SYMPREC">      0.00000001</i>
  <i name="ENCUT">    520.00000000</i>
  <i type="logical" name="LREAL"> F  </i>
  <i type="int" name="ISMEAR">     0</i>
  <i name="SIGMA">      0.01000000</i>
  <i type="logical" name="LWAVE"> F  </i>
  <v type="int" name="KPOINT_BSE">    -1     0     0     0</v>
  <i type="int" name="NELM">   100</i>
  <i type="logical" name="LPEAD"> T  </i>
  <i type="logical" name="LEPSILON"> T  </i>
 </incar>
 <structure name="primitive_cell" >
  <crystal>
   <varray name="basis" >
    <v>       2.29437496       6.15962664       0.00000000 </v>
    <v>      -2.29437496       6.15962664       0.00000000 </v>
    <v>       0.00000000       0.00000000       4.60241853 </v>
   </varray>
   <i name="volume">    130.08729634 </i>
   <varray name="rec_basis" >
    <v>       0.21792428       0.08117375       0.00000000 </v>
    <v>      -0.21792428       0.08117375       0.00000000 </v>
    <v>       0.00000000       0.00000000       0.21727707 </v>
   </varray>
  </crystal>
  <varray name="positions" >
   <v>       0.39344638       0.39344630       0.25000002 </v>
   <v>       0.15127386       0.15127378       0.25000002 </v>
   <v>      -0.15127370      -0.15127370      -0.24999994 </v>
   <v>      -0.39344622      -0.39344622      -0.24999994 </v>
  </varray>
 </structure>
 <varray name="primitive_index" >
  <v type="int" >        1 </v>
  <v type="int" >        3 </v>
  <v type="int" >        4 </v>
  <v type="int" >        2 </v>
 </varray>
 <kpoints>
  <generation param="Gamma">
   <v type="int" name="divisions">       8        8       12 </v>
   <v name="usershift">      0.00000000       0.00000000       0.00000000 </v>
   <v name="genvec1">      0.12500000       0.00000000       0.00000000 </v>
   <v name="genvec2">      0.00000000       0.12500000       0.00000000 </v>
   <v name="genvec3">      0.00000000       0.00000000       0.08333333 </v>
   <v name="shift">      0.00000000       0.00000000       0.00000000 </v>
  </generation>
  <varray name="kpointlist" >
   <v>       0.00000000       0.00000000       0.00000000 </v>
   <v>       0.12500000      -0.00000000       0.00000000 </v>
   <v>       0.25000000      -0.00000000       0.00000000 </v>
   <v>       0.37500000      -0.00000000       0.00000000 </v>
   <v>       0.50000000      -0.00000000       0.00000000 </v>
   <v>      -0.00000000       0.12500000       0.00000000 </v>
   <v>       0.12500000       0.12500000       0.00000000 </v>
   <v>       0.25000000       0.12500000       0.00000000 </v>
   <v>       0.37500000       0.12500000       0.00000000 </v>
   <v>       0.50000000       0.12500000       0.00000000 </v>
   <v>      -0.37500000       0.12500000       0.00000000 </v>
   <v>      -0.25000000       0.12500000       0.00000000 </v>
   <v>      -0.12500000       0.12500000       0.00000000 </v>
   <v>      -0.00000000       0.25000000       0.00000000 </v>
   <v>       0.12500000       0.25000000       0.00000000 </v>
   <v>       0.25000000       0.25000000       0.00000000 </v>
   <v>       0.37500000       0.25000000       0.00000000 </v>
   <v>       0.50000000       0.25000000       0.00000000 </v>
   <v>      -0.37500000       0.25000000       0.00000000 </v>
   <v>      -0.25000000       0.25000000       0.00000000 </v>
   <v>      -0.12500000       0.25000000       0.00000000 </v>
   <v>      -0.00000000       0.37500000       0.00000000 </v>
   <v>       0.12500000       0.37500000       0.00000000 </v>
   <v>       0.25000000       0.37500000       0.00000000 </v>
   <v>       0.37500000       0.37500000       0.00000000 </v>
   <v>       0.50000000       0.37500000       0.00000000 </v>
   <v>      -0.37500000       0.37500000       0.00000000 </v>
   <v>      -0.25000000       0.37500000       0.00000000 </v>
   <v>      -0.12500000       0.37500000       0.00000000 </v>
   <v>      -0.00000000       0.50000000       0.00000000 </v>
   <v>       0.12500000       0.50000000       0.00000000 </v>
   <v>       0.25000000       0.50000000       0.00000000 </v>
   <v>       0.37500000       0.50000000       0.00000000 </v>
   <v>       0.50000000       0.50000000       0.00000000 </v>
   <v>       0.00000000       0.00000000       0.08333333 </v>
   <v>       0.12500000      -0.00000000       0.08333333 </v>
   <v>       0.25000000      -0.00000000       0.08333333 </v>
   <v>       0.37500000      -0.00000000       0.08333333 </v>
   <v>       0.50000000      -0.00000000       0.08333333 </v>
   <v>      -0.37500000       0.00000000       0.08333333 </v>
   <v>      -0.25000000       0.00000000       0.08333333 </v>
   <v>      -0.12500000       0.00000000       0.08333333 </v>
   <v>      -0.00000000       0.12500000       0.08333333 </v>
   <v>       0.12500000       0.12500000       0.08333333 </v>
   <v>       0.25000000       0.12500000       0.08333333 </v>
   <v>       0.37500000       0.12500000       0.08333333 </v>
   <v>       0.50000000       0.12500000       0.08333333 </v>
   <v>      -0.37500000       0.12500000       0.08333333 </v>
   <v>      -0.25000000       0.12500000       0.08333333 </v>
   <v>      -0.12500000       0.12500000       0.08333333 </v>
   <v>      -0.00000000       0.25000000       0.08333333 </v>
   <v>       0.12500000       0.25000000       0.08333333 </v>
   <v>       0.25000000       0.25000000       0.08333333 </v>
   <v>       0.37500000       0.25000000       0.08333333 </v>
   <v>       0.50000000       0.25000000       0.08333333 </v>
   <v>      -0.37500000       0.25000000       0.08333333 </v>
   <v>      -0.25000000       0.25000000       0.08333333 </v>
   <v>      -0.12500000       0.25000000       0.08333333 </v>
   <v>      -0.00000000       0.37500000       0.08333333 </v>
   <v>       0.12500000       0.37500000       0.08333333 </v>
   <v>       0.25000000       0.37500000       0.08333333 </v>
   <v>       0.37500000       0.37500000       0.08333333 </v>
   <v>       0.50000000       0.37500000       0.08333333 </v>
   <v>      -0.37500000       0.37500000       0.08333333 </v>
   <v>      -0.25000000       0.37500000       0.08333333 </v>
   <v>      -0.12500000       0.37500000       0.08333333 </v>
   <v>      -0.00000000       0.50000000       0.08333333 </v>
   <v>       0.12500000       0.50000000       0.08333333 </v>
   <v>       0.25000000       0.50000000       0.08333333 </v>
   <v>       0.37500000       0.50000000       0.08333333 </v>
   <v>       0.50000000       0.50000000       0.08333333 </v>
   <v>      -0.37500000       0.50000000       0.08333333 </v>
   <v>      -0.25000000       0.50000000       0.08333333 </v>
   <v>      -0.12500000       0.50000000       0.08333333 </v>
   <v>       0.00000000      -0.37500000       0.08333333 </v>
   <v>       0.12500000      -0.37500000       0.08333333 </v>
   <v>       0.25000000      -0.37500000       0.08333333 </v>
   <v>       0.37500000      -0.37500000       0.08333333 </v>
   <v>       0.50000000      -0.37500000       0.08333333 </v>
   <v>      -0.37500000      -0.37500000       0.08333333 </v>
   <v>      -0.25000000      -0.37500000       0.08333333 </v>
   <v>      -0.12500000      -0.37500000       0.08333333 </v>
   <v>       0.00000000      -0.25000000       0.08333333 </v>
   <v>       0.12500000      -0.25000000       0.08333333 </v>
   <v>       0.25000000      -0.25000000       0.08333333 </v>
   <v>       0.37500000      -0.25000000       0.08333333 </v>
   <v>       0.50000000      -0.25000000       0.08333333 </v>
   <v>      -0.37500000      -0.25000000       0.08333333 </v>
   <v>      -0.25000000      -0.25000000       0.08333333 </v>
   <v>      -0.12500000      -0.25000000       0.08333333 </v>
   <v>       0.00000000      -0.12500000       0.08333333 </v>
   <v>       0.12500000      -0.12500000       0.08333333 </v>
   <v>       0.25000000      -0.12500000       0.08333333 </v>
   <v>       0.37500000      -0.12500000       0.08333333 </v>
   <v>       0.50000000      -0.12500000       0.08333333 </v>
   <v>      -0.37500000      -0.12500000       0.08333333 </v>
   <v>      -0.25000000      -0.12500000       0.08333333 </v>
   <v>      -0.12500000      -0.12500000       0.08333333 </v>
   <v>       0.00000000       0.00000000       0.16666667 </v>
   <v>       0.12500000      -0.00000000       0.16666667 </v>
   <v>       0.25000000      -0.00000000       0.16666667 </v>
   <v>       0.37500000      -0.00000000       0.16666667 </v>
   <v>       0.50000000      -0.00000000       0.16666667 </v>
   <v>      -0.37500000       0.00000000       0.16666667 </v>
   <v>      -0.25000000       0.00000000       0.16666667 </v>
   <v>      -0.12500000       0.00000000       0.16666667 </v>
   <v>      -0.00000000       0.12500000       0.16666667 </v>
   <v>       0.12500000       0.12500000       0.16666667 </v>
   <v>       0.25000000       0.12500000       0.16666667 </v>
   <v>       0.37500000       0.12500000       0.16666667 </v>
   <v>       0.50000000       0.12500000       0.16666667 </v>
   <v>      -0.37500000       0.12500000       0.16666667 </v>
   <v>      -0.25000000       0.12500000       0.16666667 </v>
   <v>      -0.12500000       0.12500000       0.16666667 </v>
   <v>      -0.00000000       0.25000000       0.16666667 </v>
   <v>       0.12500000       0.25000000       0.16666667 </v>
   <v>       0.25000000       0.25000000       0.16666667 </v>
   <v>       0.37500000       0.25000000       0.16666667 </v>
   <v>       0.50000000       0.25000000       0.16666667 </v>
   <v>      -0.37500000       0.25000000       0.16666667 </v>
   <v>      -0.25000000       0.25000000       0.16666667 </v>
   <v>      -0.12500000       0.25000000       0.16666667 </v>
   <v>      -0.00000000       0.37500000       0.16666667 </v>
   <v>       0.12500000       0.37500000       0.16666667 </v>
   <v>       0.25000000       0.37500000       0.16666667 </v>
   <v>       0.37500000       0.37500000       0.16666667 </v>
   <v>       0.50000000       0.37500000       0.16666667 </v>
   <v>      -0.37500000       0.37500000       0.16666667 </v>
   <v>      -0.25000000       0.37500000       0.16666667 </v>
   <v>      -0.12500000       0.37500000       0.16666667 </v>
   <v>      -0.00000000       0.50000000       0.16666667 </v>
   <v>       0.12500000       0.50000000       0.16666667 </v>
   <v>       0.25000000       0.50000000       0.16666667 </v>
   <v>       0.37500000       0.50000000       0.16666667 </v>
   <v>       0.50000000       0.50000000       0.16666667 </v>
   <v>      -0.37500000       0.50000000       0.16666667 </v>
   <v>      -0.25000000       0.50000000       0.16666667 </v>
   <v>      -0.12500000       0.50000000       0.16666667 </v>
   <v>       0.00000000      -0.37500000       0.16666667 </v>
   <v>       0.12500000      -0.37500000       0.16666667 </v>
   <v>       0.25000000      -0.37500000       0.16666667 </v>
   <v>       0.37500000      -0.37500000       0.16666667 </v>
   <v>       0.50000000      -0.37500000       0.16666667 </v>
   <v>      -0.37500000      -0.37500000       0.16666667 </v>
   <v>      -0.25000000      -0.37500000       0.16666667 </v>
   <v>      -0.12500000      -0.37500000       0.16666667 </v>
   <v>       0.00000000      -0.25000000       0.16666667 </v>
   <v>       0.12500000      -0.25000000       0.16666667 </v>
   <v>       0.25000000      -0.25000000       0.16666667 </v>
   <v>       0.37500000      -0.25000000       0.16666667 </v>
   <v>       0.50000000      -0.25000000       0.16666667 </v>
   <v>      -0.37500000      -0.25000000       0.16666667 </v>
   <v>      -0.25000000      -0.25000000       0.16666667 </v>
   <v>      -0.12500000      -0.25000000       0.16666667 </v>
   <v>       0.00000000      -0.12500000       0.16666667 </v>
   <v>       0.12500000      -0.12500000       0.16666667 </v>
   <v>       0.25000000      -0.12500000       0.16666667 </v>
   <v>       0.37500000      -0.12500000       0.16666667 </v>
   <v>       0.50000000      -0.12500000       0.16666667 </v>
   <v>      -0.37500000      -0.12500000       0.16666667 </v>
   <v>      -0.25000000      -0.12500000       0.16666667 </v>
   <v>      -0.12500000      -0.12500000       0.16666667 </v>
   <v>       0.00000000       0.00000000       0.25000000 </v>
   <v>       0.12500000      -0.00000000       0.25000000 </v>
   <v>       0.25000000      -0.00000000       0.25000000 </v>
   <v>       0.37500000      -0.00000000       0.25000000 </v>
   <v>       0.50000000      -0.00000000       0.25000000 </v>
   <v>      -0.37500000       0.00000000       0.25000000 </v>
   <v>      -0.25000000       0.00000000       0.25000000 </v>
   <v>      -0.12500000       0.00000000       0.25000000 </v>
   <v>      -0.00000000       0.12500000       0.25000000 </v>
   <v>       0.12500000       0.12500000       0.25000000 </v>
   <v>       0.25000000       0.12500000       0.25000000 </v>
   <v>       0.37500000       0.12500000       0.25000000 </v>
   <v>       0.50000000       0.12500000       0.25000000 </v>
   <v>      -0.37500000       0.12500000       0.25000000 </v>
   <v>      -0.25000000       0.12500000       0.25000000 </v>
   <v>      -0.12500000       0.12500000       0.25000000 </v>
   <v>      -0.00000000       0.25000000       0.25000000 </v>
   <v>       0.12500000       0.25000000       0.25000000 </v>
   <v>       0.25000000       0.25000000       0.25000000 </v>
   <v>       0.37500000       0.25000000       0.25000000 </v>
   <v>       0.50000000       0.25000000       0.25000000 </v>
   <v>      -0.37500000       0.25000000       0.25000000 </v>
   <v>      -0.25000000       0.25000000       0.25000000 </v>
   <v>      -0.12500000       0.25000000       0.25000000 </v>
   <v>      -0.00000000       0.37500000       0.25000000 </v>
   <v>       0.12500000       0.37500000       0.25000000 </v>
   <v>       0.25000000       0.37500000       0.25000000 </v>
   <v>       0.37500000       0.37500000       0.25000000 </v>
   <v>       0.50000000       0.37500000       0.25000000 </v>
   <v>      -0.37500000       0.37500000       0.25000000 </v>
   <v>      -0.25000000       0.37500000       0.25000000 </v>
   <v>      -0.12500000       0.37500000       0.25000000 </v>
   <v>      -0.00000000       0.50000000       0.25000000 </v>
   <v>       0.12500000       0.50000000       0.25000000 </v>
   <v>       0.25000000       0.50000000       0.25000000 </v>
   <v>       0.37500000       0.50000000       0.25000000 </v>
   <v>       0.50000000       0.50000000       0.25000000 </v>
   <v>      -0.37500000       0.50000000       0.25000000 </v>
   <v>      -0.25000000       0.50000000       0.25000000 </v>
   <v>      -0.12500000       0.50000000       0.25000000 </v>
   <v>       0.00000000      -0.37500000       0.25000000 </v>
   <v>       0.12500000      -0.37500000       0.25000000 </v>
   <v>       0.25000000      -0.37500000       0.25000000 </v>
   <v>       0.37500000      -0.37500000       0.25000000 </v>
   <v>       0.50000000      -0.37500000       0.25000000 </v>
   <v>      -0.37500000      -0.37500000       0.25000000 </v>
   <v>      -0.25000000      -0.37500000       0.25000000 </v>
   <v>      -0.12500000      -0.37500000       0.25000000 </v>
   <v>       0.00000000      -0.25000000       0.25000000 </v>
   <v>       0.12500000      -0.25000000       0.25000000 </v>
   <v>       0.25000000      -0.25000000       0.25000000 </v>
   <v>       0.37500000      -0.25000000       0.25000000 </v>
   <v>       0.50000000      -0.25000000       0.25000000 </v>
   <v>      -0.37500000      -0.25000000       0.25000000 </v>
   <v>      -0.25000000      -0.25000000       0.25000000 </v>
   <v>      -0.12500000      -0.25000000       0.25000000 </v>
   <v>       0.00000000      -0.12500000       0.25000000 </v>
   <v>       0.12500000      -0.12500000       0.25000000 </v>
   <v>       0.25000000      -0.12500000       0.25000000 </v>
   <v>       0.37500000      -0.12500000       0.25000000 </v>
   <v>       0.50000000      -0.12500000       0.25000000 </v>
   <v>      -0.37500000      -0.12500000       0.25000000 </v>
   <v>      -0.25000000      -0.12500000       0.25000000 </v>
   <v>      -0.12500000      -0.12500000       0.25000000 </v>
   <v>       0.00000000       0.00000000       0.33333333 </v>
   <v>       0.12500000      -0.00000000       0.33333333 </v>
   <v>       0.25000000      -0.00000000       0.33333333 </v>
   <v>       0.37500000      -0.00000000       0.33333333 </v>
   <v>       0.50000000      -0.00000000       0.33333333 </v>
   <v>      -0.37500000       0.00000000       0.33333333 </v>
   <v>      -0.25000000       0.00000000       0.33333333 </v>
   <v>      -0.12500000       0.00000000       0.33333333 </v>
   <v>      -0.00000000       0.12500000       0.33333333 </v>
   <v>       0.12500000       0.12500000       0.33333333 </v>
   <v>       0.25000000       0.12500000       0.33333333 </v>
   <v>       0.37500000       0.12500000       0.33333333 </v>
   <v>       0.50000000       0.12500000       0.33333333 </v>
   <v>      -0.37500000       0.12500000       0.33333333 </v>
   <v>      -0.25000000       0.12500000       0.33333333 </v>
   <v>      -0.12500000       0.12500000       0.33333333 </v>
   <v>      -0.00000000       0.25000000       0.33333333 </v>
   <v>       0.12500000       0.25000000       0.33333333 </v>
   <v>       0.25000000       0.25000000       0.33333333 </v>
   <v>       0.37500000       0.25000000       0.33333333 </v>
   <v>       0.50000000       0.25000000       0.33333333 </v>
   <v>      -0.37500000       0.25000000       0.33333333 </v>
   <v>      -0.25000000       0.25000000       0.33333333 </v>
   <v>      -0.12500000       0.25000000       0.33333333 </v>
   <v>      -0.00000000       0.37500000       0.33333333 </v>
   <v>       0.12500000       0.37500000       0.33333333 </v>
   <v>       0.25000000       0.37500000       0.33333333 </v>
   <v>       0.37500000       0.37500000       0.33333333 </v>
   <v>       0.50000000       0.37500000       0.33333333 </v>
   <v>      -0.37500000       0.37500000       0.33333333 </v>
   <v>      -0.25000000       0.37500000       0.33333333 </v>
   <v>      -0.12500000       0.37500000       0.33333333 </v>
   <v>      -0.00000000       0.50000000       0.33333333 </v>
   <v>       0.12500000       0.50000000       0.33333333 </v>
   <v>       0.25000000       0.50000000       0.33333333 </v>
   <v>       0.37500000       0.50000000       0.33333333 </v>
   <v>       0.50000000       0.50000000       0.33333333 </v>
   <v>      -0.37500000       0.50000000       0.33333333 </v>
   <v>      -0.25000000       0.50000000       0.33333333 </v>
   <v>      -0.12500000       0.50000000       0.33333333 </v>
   <v>       0.00000000      -0.37500000       0.33333333 </v>
   <v>       0.12500000      -0.37500000       0.33333333 </v>
   <v>       0.25000000      -0.37500000       0.33333333 </v>
   <v>       0.37500000      -0.37500000       0.33333333 </v>
   <v>       0.50000000      -0.37500000       0.33333333 </v>
   <v>      -0.37500000      -0.37500000       0.33333333 </v>
   <v>      -0.25000000      -0.37500000       0.33333333 </v>
   <v>      -0.12500000      -0.37500000       0.33333333 </v>
   <v>       0.00000000      -0.25000000       0.33333333 </v>
   <v>       0.12500000      -0.25000000       0.33333333 </v>
   <v>       0.25000000      -0.25000000       0.33333333 </v>
   <v>       0.37500000      -0.25000000       0.33333333 </v>
   <v>       0.50000000      -0.25000000       0.33333333 </v>
   <v>      -0.37500000      -0.25000000       0.33333333 </v>
   <v>      -0.25000000      -0.25000000       0.33333333 </v>
   <v>      -0.12500000      -0.25000000       0.33333333 </v>
   <v>       0.00000000      -0.12500000       0.33333333 </v>
   <v>       0.12500000      -0.12500000       0.33333333 </v>
   <v>       0.25000000      -0.12500000       0.33333333 </v>
   <v>       0.37500000      -0.12500000       0.33333333 </v>
   <v>       0.50000000      -0.12500000       0.33333333 </v>
   <v>      -0.37500000      -0.12500000       0.33333333 </v>
   <v>      -0.25000000      -0.12500000       0.33333333 </v>
   <v>      -0.12500000      -0.12500000       0.33333333 </v>
   <v>       0.00000000       0.00000000       0.41666667 </v>
   <v>       0.12500000      -0.00000000       0.41666667 </v>
   <v>       0.25000000      -0.00000000       0.41666667 </v>
   <v>       0.37500000      -0.00000000       0.41666667 </v>
   <v>       0.50000000      -0.00000000       0.41666667 </v>
   <v>      -0.37500000       0.00000000       0.41666667 </v>
   <v>      -0.25000000       0.00000000       0.41666667 </v>
   <v>      -0.12500000       0.00000000       0.41666667 </v>
   <v>      -0.00000000       0.12500000       0.41666667 </v>
   <v>       0.12500000       0.12500000       0.41666667 </v>
   <v>       0.25000000       0.12500000       0.41666667 </v>
   <v>       0.37500000       0.12500000       0.41666667 </v>
   <v>       0.50000000       0.12500000       0.41666667 </v>
   <v>      -0.37500000       0.12500000       0.41666667 </v>
   <v>      -0.25000000       0.12500000       0.41666667 </v>
   <v>      -0.12500000       0.12500000       0.41666667 </v>
   <v>      -0.00000000       0.25000000       0.41666667 </v>
   <v>       0.12500000       0.25000000       0.41666667 </v>
   <v>       0.25000000       0.25000000       0.41666667 </v>
   <v>       0.37500000       0.25000000       0.41666667 </v>
   <v>       0.50000000       0.25000000       0.41666667 </v>
   <v>      -0.37500000       0.25000000       0.41666667 </v>
   <v>      -0.25000000       0.25000000       0.41666667 </v>
   <v>      -0.12500000       0.25000000       0.41666667 </v>
   <v>      -0.00000000       0.37500000       0.41666667 </v>
   <v>       0.12500000       0.37500000       0.41666667 </v>
   <v>       0.25000000       0.37500000       0.41666667 </v>
   <v>       0.37500000       0.37500000       0.41666667 </v>
   <v>       0.50000000       0.37500000       0.41666667 </v>
   <v>      -0.37500000       0.37500000       0.41666667 </v>
   <v>      -0.25000000       0.37500000       0.41666667 </v>
   <v>      -0.12500000       0.37500000       0.41666667 </v>
   <v>      -0.00000000       0.50000000       0.41666667 </v>
   <v>       0.12500000       0.50000000       0.41666667 </v>
   <v>       0.25000000       0.50000000       0.41666667 </v>
   <v>       0.37500000       0.50000000       0.41666667 </v>
   <v>       0.50000000       0.50000000       0.41666667 </v>
   <v>      -0.37500000       0.50000000       0.41666667 </v>
   <v>      -0.25000000       0.50000000       0.41666667 </v>
   <v>      -0.12500000       0.50000000       0.41666667 </v>
   <v>       0.00000000      -0.37500000       0.41666667 </v>
   <v>       0.12500000      -0.37500000       0.41666667 </v>
   <v>       0.25000000      -0.37500000       0.41666667 </v>
   <v>       0.37500000      -0.37500000       0.41666667 </v>
   <v>       0.50000000      -0.37500000       0.41666667 </v>
   <v>      -0.37500000      -0.37500000       0.41666667 </v>
   <v>      -0.25000000      -0.37500000       0.41666667 </v>
   <v>      -0.12500000      -0.37500000       0.41666667 </v>
   <v>       0.00000000      -0.25000000       0.41666667 </v>
   <v>       0.12500000      -0.25000000       0.41666667 </v>
   <v>       0.25000000      -0.25000000       0.41666667 </v>
   <v>       0.37500000      -0.25000000       0.41666667 </v>
   <v>       0.50000000      -0.25000000       0.41666667 </v>
   <v>      -0.37500000      -0.25000000       0.41666667 </v>
   <v>      -0.25000000      -0.25000000       0.41666667 </v>
   <v>      -0.12500000      -0.25000000       0.41666667 </v>
   <v>       0.00000000      -0.12500000       0.41666667 </v>
   <v>       0.12500000      -0.12500000       0.41666667 </v>
   <v>       0.25000000      -0.12500000       0.41666667 </v>
   <v>       0.37500000      -0.12500000       0.41666667 </v>
   <v>       0.50000000      -0.12500000       0.41666667 </v>
   <v>      -0.37500000      -0.12500000       0.41666667 </v>
   <v>      -0.25000000      -0.12500000       0.41666667 </v>
   <v>      -0.12500000      -0.12500000       0.41666667 </v>
   <v>       0.00000000       0.00000000       0.50000000 </v>
   <v>       0.12500000      -0.00000000       0.50000000 </v>
   <v>       0.25000000      -0.00000000       0.50000000 </v>
   <v>       0.37500000      -0.00000000       0.50000000 </v>
   <v>       0.50000000      -0.00000000       0.50000000 </v>
   <v>      -0.00000000       0.12500000       0.50000000 </v>
   <v>       0.12500000       0.12500000       0.50000000 </v>
   <v>       0.25000000       0.12500000       0.50000000 </v>
   <v>       0.37500000       0.12500000       0.50000000 </v>
   <v>       0.50000000       0.12500000       0.50000000 </v>
   <v>      -0.37500000       0.12500000       0.50000000 </v>
   <v>      -0.25000000       0.12500000       0.50000000 </v>
   <v>      -0.12500000       0.12500000       0.50000000 </v>
   <v>      -0.00000000       0.25000000       0.50000000 </v>
   <v>       0.12500000       0.25000000       0.50000000 </v>
   <v>       0.25000000       0.25000000       0.50000000 </v>
   <v>       0.37500000       0.25000000       0.50000000 </v>
   <v>       0.50000000       0.25000000       0.50000000 </v>
   <v>      -0.37500000       0.25000000       0.50000000 </v>
   <v>      -0.25000000       0.25000000       0.50000000 </v>
   <v>      -0.12500000       0.25000000       0.50000000 </v>
   <v>      -0.00000000       0.37500000       0.50000000 </v>
   <v>       0.12500000       0.37500000       0.50000000 </v>
   <v>       0.25000000       0.37500000       0.50000000 </v>
   <v>       0.37500000       0.37500000       0.50000000 </v>
   <v>       0.50000000       0.37500000       0.50000000 </v>
   <v>      -0.37500000       0.37500000       0.50000000 </v>
   <v>      -0.25000000       0.37500000       0.50000000 </v>
   <v>      -0.12500000       0.37500000       0.50000000 </v>
   <v>      -0.00000000       0.50000000       0.50000000 </v>
   <v>       0.12500000       0.50000000       0.50000000 </v>
   <v>       0.25000000       0.50000000       0.50000000 </v>
   <v>       0.37500000       0.50000000       0.50000000 </v>
   <v>       0.50000000       0.50000000       0.50000000 </v>
  </varray>
  <varray name="weights" >
   <v>       0.00130208 </v>
   <v>       0.00260417 </v>
   <v>       0.00260417 </v>
   <v>       0.00260417 </v>
   <v>       0.00130208 </v>
   <v>       0.00260417 </v>
   <v>       0.00260417 </v>
   <v>       0.00260417 </v>
   <v>       0.00260417 </v>
   <v>       0.00260417 </v>
   <v>       0.00260417 </v>
   <v>       0.00260417 </v>
   <v>       0.00260417 </v>
   <v>       0.00260417 </v>
   <v>       0.00260417 </v>
   <v>       0.00260417 </v>
   <v>       0.00260417 </v>
   <v>       0.00260417 </v>
   <v>       0.00260417 </v>
   <v>       0.00260417 </v>
   <v>       0.00260417 </v>
   <v>       0.00260417 </v>
   <v>       0.00260417 </v>
   <v>       0.00260417 </v>
   <v>       0.00260417 </v>
   <v>       0.00260417 </v>
   <v>       0.00260417 </v>
   <v>       0.00260417 </v>
   <v>       0.00260417 </v>
   <v>       0.00130208 </v>
   <v>       0.00260417 </v>
   <v>       0.00260417 </v>
   <v>       0.00260417 </v>
   <v>       0.00130208 </v>
   <v>       0.00260417 </v>
   <v>       0.00260417 </v>
   <v>       0.00260417 </v>
   <v>       0.00260417 </v>
   <v>       0.00260417 </v>
   <v>       0.00260417 </v>
   <v>       0.00260417 </v>
   <v>       0.00260417 </v>
   <v>       0.00260417 </v>
   <v>       0.00260417 </v>
   <v>       0.00260417 </v>
   <v>       0.00260417 </v>
   <v>       0.00260417 </v>
   <v>       0.00260417 </v>
   <v>       0.00260417 </v>
   <v>       0.00260417 </v>
   <v>       0.00260417 </v>
   <v>       0.00260417 </v>
   <v>       0.00260417 </v>
   <v>       0.00260417 </v>
   <v>       0.00260417 </v>
   <v>       0.00260417 </v>
   <v>       0.00260417 </v>
   <v>       0.00260417 </v>
   <v>       0.00260417 </v>
   <v>       0.00260417 </v>
   <v>       0.00260417 </v>
   <v>       0.00260417 </v>
   <v>       0.00260417 </v>
   <v>       0.00260417 </v>
   <v>       0.00260417 </v>
   <v>       0.00260417 </v>
   <v>       0.00260417 </v>
   <v>       0.00260417 </v>
   <v>       0.00260417 </v>
   <v>       0.00260417 </v>
   <v>       0.00260417 </v>
   <v>       0.00260417 </v>
   <v>       0.00260417 </v>
   <v>       0.00260417 </v>
   <v>       0.00260417 </v>
   <v>       0.00260417 </v>
   <v>       0.00260417 </v>
   <v>       0.00260417 </v>
   <v>       0.00260417 </v>
   <v>       0.00260417 </v>
   <v>       0.00260417 </v>
   <v>       0.00260417 </v>
   <v>       0.00260417 </v>
   <v>       0.00260417 </v>
   <v>       0.00260417 </v>
   <v>       0.00260417 </v>
   <v>       0.00260417 </v>
   <v>       0.00260417 </v>
   <v>       0.00260417 </v>
   <v>       0.00260417 </v>
   <v>       0.00260417 </v>
   <v>       0.00260417 </v>
   <v>       0.00260417 </v>
   <v>       0.00260417 </v>
   <v>       0.00260417 </v>
   <v>       0.00260417 </v>
   <v>       0.00260417 </v>
   <v>       0.00260417 </v>
   <v>       0.00260417 </v>
   <v>       0.00260417 </v>
   <v>       0.00260417 </v>
   <v>       0.00260417 </v>
   <v>       0.00260417 </v>
   <v>       0.00260417 </v>
   <v>       0.00260417 </v>
   <v>       0.00260417 </v>
   <v>       0.00260417 </v>
   <v>       0.00260417 </v>
   <v>       0.00260417 </v>
   <v>       0.00260417 </v>
   <v>       0.00260417 </v>
   <v>       0.00260417 </v>
   <v>       0.00260417 </v>
   <v>       0.00260417 </v>
   <v>       0.00260417 </v>
   <v>       0.00260417 </v>
   <v>       0.00260417 </v>
   <v>       0.00260417 </v>
   <v>       0.00260417 </v>
   <v>       0.00260417 </v>
   <v>       0.00260417 </v>
   <v>       0.00260417 </v>
   <v>       0.00260417 </v>
   <v>       0.00260417 </v>
   <v>       0.00260417 </v>
   <v>       0.00260417 </v>
   <v>       0.00260417 </v>
   <v>       0.00260417 </v>
   <v>       0.00260417 </v>
   <v>       0.00260417 </v>
   <v>       0.00260417 </v>
   <v>       0.00260417 </v>
   <v>       0.00260417 </v>
   <v>       0.00260417 </v>
   <v>       0.00260417 </v>
   <v>       0.00260417 </v>
   <v>       0.00260417 </v>
   <v>       0.00260417 </v>
   <v>       0.00260417 </v>
   <v>       0.00260417 </v>
   <v>       0.00260417 </v>
   <v>       0.00260417 </v>
   <v>       0.00260417 </v>
   <v>       0.00260417 </v>
   <v>       0.00260417 </v>
   <v>       0.00260417 </v>
   <v>       0.00260417 </v>
   <v>       0.00260417 </v>
   <v>       0.00260417 </v>
   <v>       0.00260417 </v>
   <v>       0.00260417 </v>
   <v>       0.00260417 </v>
   <v>       0.00260417 </v>
   <v>       0.00260417 </v>
   <v>       0.00260417 </v>
   <v>       0.00260417 </v>
   <v>       0.00260417 </v>
   <v>       0.00260417 </v>
   <v>       0.00260417 </v>
   <v>       0.00260417 </v>
   <v>       0.00260417 </v>
   <v>       0.00260417 </v>
   <v>       0.00260417 </v>
   <v>       0.00260417 </v>
   <v>       0.00260417 </v>
   <v>       0.00260417 </v>
   <v>       0.00260417 </v>
   <v>       0.00260417 </v>
   <v>       0.00260417 </v>
   <v>       0.00260417 </v>
   <v>       0.00260417 </v>
   <v>       0.00260417 </v>
   <v>       0.00260417 </v>
   <v>       0.00260417 </v>
   <v>       0.00260417 </v>
   <v>       0.00260417 </v>
   <v>       0.00260417 </v>
   <v>       0.00260417 </v>
   <v>       0.00260417 </v>
   <v>       0.00260417 </v>
   <v>       0.00260417 </v>
   <v>       0.00260417 </v>
   <v>       0.00260417 </v>
   <v>       0.00260417 </v>
   <v>       0.00260417 </v>
   <v>       0.00260417 </v>
   <v>       0.00260417 </v>
   <v>       0.00260417 </v>
   <v>       0.00260417 </v>
   <v>       0.00260417 </v>
   <v>       0.00260417 </v>
   <v>       0.00260417 </v>
   <v>       0.00260417 </v>
   <v>       0.00260417 </v>
   <v>       0.00260417 </v>
   <v>       0.00260417 </v>
   <v>       0.00260417 </v>
   <v>       0.00260417 </v>
   <v>       0.00260417 </v>
   <v>       0.00260417 </v>
   <v>       0.00260417 </v>
   <v>       0.00260417 </v>
   <v>       0.00260417 </v>
   <v>       0.00260417 </v>
   <v>       0.00260417 </v>
   <v>       0.00260417 </v>
   <v>       0.00260417 </v>
   <v>       0.00260417 </v>
   <v>       0.00260417 </v>
   <v>       0.00260417 </v>
   <v>       0.00260417 </v>
   <v>       0.00260417 </v>
   <v>       0.00260417 </v>
   <v>       0.00260417 </v>
   <v>       0.00260417 </v>
   <v>       0.00260417 </v>
   <v>       0.00260417 </v>
   <v>       0.00260417 </v>
   <v>       0.00260417 </v>
   <v>       0.00260417 </v>
   <v>       0.00260417 </v>
   <v>       0.00260417 </v>
   <v>       0.00260417 </v>
   <v>       0.00260417 </v>
   <v>       0.00260417 </v>
   <v>       0.00260417 </v>
   <v>       0.00260417 </v>
   <v>       0.00260417 </v>
   <v>       0.00260417 </v>
   <v>       0.00260417 </v>
   <v>       0.00260417 </v>
   <v>       0.00260417 </v>
   <v>       0.00260417 </v>
   <v>       0.00260417 </v>
   <v>       0.00260417 </v>
   <v>       0.00260417 </v>
   <v>       0.00260417 </v>
   <v>       0.00260417 </v>
   <v>       0.00260417 </v>
   <v>       0.00260417 </v>
   <v>       0.00260417 </v>
   <v>       0.00260417 </v>
   <v>       0.00260417 </v>
   <v>       0.00260417 </v>
   <v>       0.00260417 </v>
   <v>       0.00260417 </v>
   <v>       0.00260417 </v>
   <v>       0.00260417 </v>
   <v>       0.00260417 </v>
   <v>       0.00260417 </v>
   <v>       0.00260417 </v>
   <v>       0.00260417 </v>
   <v>       0.00260417 </v>
   <v>       0.00260417 </v>
   <v>       0.00260417 </v>
   <v>       0.00260417 </v>
   <v>       0.00260417 </v>
   <v>       0.00260417 </v>
   <v>       0.00260417 </v>
   <v>       0.00260417 </v>
   <v>       0.00260417 </v>
   <v>       0.00260417 </v>
   <v>       0.00260417 </v>
   <v>       0.00260417 </v>
   <v>       0.00260417 </v>
   <v>       0.00260417 </v>
   <v>       0.00260417 </v>
   <v>       0.00260417 </v>
   <v>       0.00260417 </v>
   <v>       0.00260417 </v>
   <v>       0.00260417 </v>
   <v>       0.00260417 </v>
   <v>       0.00260417 </v>
   <v>       0.00260417 </v>
   <v>       0.00260417 </v>
   <v>       0.00260417 </v>
   <v>       0.00260417 </v>
   <v>       0.00260417 </v>
   <v>       0.00260417 </v>
   <v>       0.00260417 </v>
   <v>       0.00260417 </v>
   <v>       0.00260417 </v>
   <v>       0.00260417 </v>
   <v>       0.00260417 </v>
   <v>       0.00260417 </v>
   <v>       0.00260417 </v>
   <v>       0.00260417 </v>
   <v>       0.00260417 </v>
   <v>       0.00260417 </v>
   <v>       0.00260417 </v>
   <v>       0.00260417 </v>
   <v>       0.00260417 </v>
   <v>       0.00260417 </v>
   <v>       0.00260417 </v>
   <v>       0.00260417 </v>
   <v>       0.00260417 </v>
   <v>       0.00260417 </v>
   <v>       0.00260417 </v>
   <v>       0.00260417 </v>
   <v>       0.00260417 </v>
   <v>       0.00260417 </v>
   <v>       0.00260417 </v>
   <v>       0.00260417 </v>
   <v>       0.00260417 </v>
   <v>       0.00260417 </v>
   <v>       0.00260417 </v>
   <v>       0.00260417 </v>
   <v>       0.00260417 </v>
   <v>       0.00260417 </v>
   <v>       0.00260417 </v>
   <v>       0.00260417 </v>
   <v>       0.00260417 </v>
   <v>       0.00260417 </v>
   <v>       0.00260417 </v>
   <v>       0.00260417 </v>
   <v>       0.00260417 </v>
   <v>       0.00260417 </v>
   <v>       0.00260417 </v>
   <v>       0.00260417 </v>
   <v>       0.00260417 </v>
   <v>       0.00260417 </v>
   <v>       0.00260417 </v>
   <v>       0.00260417 </v>
   <v>       0.00260417 </v>
   <v>       0.00260417 </v>
   <v>       0.00260417 </v>
   <v>       0.00260417 </v>
   <v>       0.00260417 </v>
   <v>       0.00260417 </v>
   <v>       0.00260417 </v>
   <v>       0.00260417 </v>
   <v>       0.00260417 </v>
   <v>       0.00260417 </v>
   <v>       0.00260417 </v>
   <v>       0.00260417 </v>
   <v>       0.00260417 </v>
   <v>       0.00260417 </v>
   <v>       0.00260417 </v>
   <v>       0.00260417 </v>
   <v>       0.00260417 </v>
   <v>       0.00260417 </v>
   <v>       0.00260417 </v>
   <v>       0.00260417 </v>
   <v>       0.00260417 </v>
   <v>       0.00260417 </v>
   <v>       0.00260417 </v>
   <v>       0.00260417 </v>
   <v>       0.00260417 </v>
   <v>       0.00260417 </v>
   <v>       0.00260417 </v>
   <v>       0.00260417 </v>
   <v>       0.00260417 </v>
   <v>       0.00260417 </v>
   <v>       0.00260417 </v>
   <v>       0.00130208 </v>
   <v>       0.00260417 </v>
   <v>       0.00260417 </v>
   <v>       0.00260417 </v>
   <v>       0.00130208 </v>
   <v>       0.00260417 </v>
   <v>       0.00260417 </v>
   <v>       0.00260417 </v>
   <v>       0.00260417 </v>
   <v>       0.00260417 </v>
   <v>       0.00260417 </v>
   <v>       0.00260417 </v>
   <v>       0.00260417 </v>
   <v>       0.00260417 </v>
   <v>       0.00260417 </v>
   <v>       0.00260417 </v>
   <v>       0.00260417 </v>
   <v>       0.00260417 </v>
   <v>       0.00260417 </v>
   <v>       0.00260417 </v>
   <v>       0.00260417 </v>
   <v>       0.00260417 </v>
   <v>       0.00260417 </v>
   <v>       0.00260417 </v>
   <v>       0.00260417 </v>
   <v>       0.00260417 </v>
   <v>       0.00260417 </v>
   <v>       0.00260417 </v>
   <v>       0.00260417 </v>
   <v>       0.00130208 </v>
   <v>       0.00260417 </v>
   <v>       0.00260417 </v>
   <v>       0.00260417 </v>
   <v>       0.00130208 </v>
  </varray>
 </kpoints>
 <parameters>
  <separator name="general" >
   <i type="string" name="SYSTEM">unknown system</i>
   <i type="logical" name="LCOMPAT"> F  </i>
  </separator>
  <separator name="electronic" >
   <i type="string" name="PREC">accura</i>
   <i name="ENMAX">    520.00000000</i>
   <i name="ENAUG">    503.85200000</i>
   <i name="EDIFF">      0.00000001</i>
   <i type="int" name="IALGO">    38</i>
   <i type="int" name="IWAVPR">    11</i>
   <i type="int" name="NBANDS">    24</i>
   <i name="NELECT">     40.00000000</i>
   <i type="int" name="TURBO">     0</i>
   <i type="int" name="IRESTART">     0</i>
   <i type="int" name="NREBOOT">     0</i>
   <i type="int" name="NMIN">     0</i>
   <i name="EREF">      0.00000000</i>
   <separator name="electronic smearing" >
    <i type="int" name="ISMEAR">     0</i>
    <i name="SIGMA">      0.01000000</i>
    <i name="KSPACING">      0.50000000</i>
    <i type="logical" name="KGAMMA"> T  </i>
   </separator>
   <separator name="electronic projectors" >
    <i type="logical" name="LREAL"> F  </i>
    <v name="ROPT">      0.00000000      0.00000000</v>
    <i type="int" name="LMAXPAW">  -100</i>
    <i type="int" name="LMAXMIX">     2</i>
    <i type="logical" name="NLSPLINE"> F  </i>
   </separator>
   <separator name="electronic startup" >
    <i type="int" name="ISTART">     0</i>
    <i type="int" name="ICHARG">     2</i>
    <i type="int" name="INIWAV">     1</i>
   </separator>
   <separator name="electronic spin" >
    <i type="int" name="ISPIN">     1</i>
    <i type="logical" name="LNONCOLLINEAR"> F  </i>
    <v name="MAGMOM">      1.00000000      1.00000000      1.00000000      1.00000000</v>
    <i name="NUPDOWN">     -1.00000000</i>
    <i type="logical" name="LSORBIT"> F  </i>
    <v name="SAXIS">      0.00000000      0.00000000      1.00000000</v>
    <i type="logical" name="LSPIRAL"> F  </i>
    <v name="QSPIRAL">      0.00000000      0.00000000      0.00000000</v>
    <i type="logical" name="LZEROZ"> F  </i>
   </separator>
   <separator name="electronic exchange-correlation" >
    <i type="logical" name="LASPH"> F  </i>
    <i type="logical" name="LMETAGGA"> F  </i>
   </separator>
   <separator name="electronic convergence" >
    <i type="int" name="NELM">   100</i>
    <i type="int" name="NELMDL">    -5</i>
    <i type="int" name="NELMIN">     2</i>
    <i name="ENINI">    520.00000000</i>
    <separator name="electronic convergence detail" >
     <i type="logical" name="LDIAG"> T  </i>
     <i type="logical" name="LSUBROT"> F  </i>
     <i name="WEIMIN">      0.00100000</i>
     <i name="EBREAK">      0.00000000</i>
     <i name="DEPER">      0.30000000</i>
     <i type="int" name="NRMM">     4</i>
     <i name="TIME">      0.40000000</i>
    </separator>
   </separator>
   <separator name="electronic mixer" >
    <i name="AMIX">      0.40000000</i>
    <i name="BMIX">      1.00000000</i>
    <i name="AMIN">      0.10000000</i>
    <i name="AMIX_MAG">      1.60000000</i>
    <i name="BMIX_MAG">      1.00000000</i>
    <separator name="electronic mixer details" >
     <i type="int" name="IMIX">     4</i>
     <i type="logical" name="MIXFIRST"> F  </i>
     <i type="int" name="MAXMIX">   -45</i>
     <i name="WC">    100.00000000</i>
     <i type="int" name="INIMIX">     1</i>
     <i type="int" name="MIXPRE">     1</i>
     <i type="int" name="MREMOVE">     5</i>
    </separator>
   </separator>
   <separator name="electronic dipolcorrection" >
    <i type="logical" name="LDIPOL"> F  </i>
    <i type="logical" name="LMONO"> F  </i>
    <i type="int" name="IDIPOL">     0</i>
    <i name="EPSILON">      1.00000000</i>
    <v name="DIPOL">   -100.00000000   -100.00000000   -100.00000000</v>
    <i name="EFIELD">      0.00000000</i>
   </separator>
  </separator>
  <separator name="grids" >
   <i type="int" name="NGX">    50</i>
   <i type="int" name="NGY">    50</i>
   <i type="int" name="NGZ">    36</i>
   <i type="int" name="NGXF">   100</i>
   <i type="int" name="NGYF">   100</i>
   <i type="int" name="NGZF">    72</i>
   <i type="logical" name="ADDGRID"> F  </i>
  </separator>
  <separator name="ionic" >
   <i type="int" name="NSW">     1</i>
   <i type="int" name="IBRION">     8</i>
   <i type="int" name="MDALGO">     0</i>
   <i type="int" name="ISIF">     2</i>
   <i name="PSTRESS">      0.00000000</i>
   <i name="EDIFFG">      0.00000010</i>
   <i type="int" name="NFREE">     0</i>
   <i name="POTIM">      0.50000000</i>
   <i name="SMASS">     -3.00000000</i>
   <i name="SCALEE">      1.00000000</i>
  </separator>
  <separator name="ionic md" >
   <i name="TEBEG">      0.00010000</i>
   <i name="TEEND">      0.00010000</i>
   <i type="int" name="NBLOCK">     1</i>
   <i type="int" name="KBLOCK">     1</i>
   <i type="int" name="NPACO">   256</i>
   <i name="APACO">     16.00000000</i>
  </separator>
  <separator name="symmetry" >
   <i type="int" name="ISYM">     2</i>
   <i name="SYMPREC">      0.00000001</i>
  </separator>
  <separator name="dos" >
   <i type="int" name="LORBIT">     0</i>
   <v name="RWIGS">     -1.00000000     -1.00000000</v>
   <i type="int" name="NEDOS">   301</i>
   <i name="EMIN">     10.00000000</i>
   <i name="EMAX">    -10.00000000</i>
   <i name="EFERMI">      0.00000000</i>
  </separator>
  <separator name="writing" >
   <i type="int" name="NWRITE">     2</i>
   <i type="logical" name="LWAVE"> F  </i>
   <i type="logical" name="LDOWNSAMPLE"> F  </i>
   <i type="logical" name="LCHARG"> T  </i>
   <i type="logical" name="LPARD"> F  </i>
   <i type="logical" name="LVTOT"> F  </i>
   <i type="logical" name="LVHAR"> F  </i>
   <i type="logical" name="LELF"> F  </i>
   <i type="logical" name="LOPTICS"> F  </i>
   <v name="STM">      0.00000000      0.00000000      0.00000000      0.00000000      0.00000000      0.00000000      0.00000000</v>
  </separator>
  <separator name="performance" >
   <i type="int" name="NPAR">    24</i>
   <i type="int" name="NSIM">     4</i>
   <i type="int" name="NBLK">    -1</i>
   <i type="logical" name="LPLANE"> T  </i>
   <i type="logical" name="LSCALAPACK"> T  </i>
   <i type="logical" name="LSCAAWARE"> F  </i>
   <i type="logical" name="LSCALU"> F  </i>
   <i type="logical" name="LASYNC"> F  </i>
   <i type="logical" name="LORBITALREAL"> F  </i>
  </separator>
  <separator name="miscellaneous" >
   <i type="int" name="IDIOT">     3</i>
   <i type="int" name="ISPECIAL">     0</i>
   <i type="logical" name="LMUSIC"> F  </i>
   <v name="POMASS">    114.82000000     79.90400000</v>
   <v name="DARWINR">      0.00000000      0.00000000</v>
   <v name="DARWINV">      1.00000000      1.00000000</v>
   <i type="logical" name="LCORR"> T  </i>
  </separator>
  <i type="logical" name="GGA_COMPAT"> T  </i>
  <i type="logical" name="LBERRY"> F  </i>
  <i type="int" name="ICORELEVEL">     0</i>
  <i type="logical" name="LDAU"> F  </i>
  <i type="int" name="I_CONSTRAINED_M">     0</i>
  <separator name="electronic exchange-correlation" >
   <i type="string" name="GGA">--</i>
   <i type="int" name="VOSKOWN">     0</i>
   <i type="logical" name="LHFCALC"> F  </i>
   <i type="string" name="PRECFOCK"></i>
   <i type="logical" name="LSYMGRAD"> F  </i>
   <i type="logical" name="LHFONE"> F  </i>
   <i type="logical" name="LRHFCALC"> F  </i>
   <i type="logical" name="LTHOMAS"> F  </i>
   <i type="logical" name="LMODELHF"> F  </i>
   <i name="ENCUT4O">     -1.00000000</i>
   <i type="int" name="EXXOEP">     0</i>
   <i type="int" name="FOURORBIT">     0</i>
   <i name="AEXX">      0.00000000</i>
   <i name="HFALPHA">      0.00000000</i>
   <i name="MCALPHA">      0.00000000</i>
   <i name="ALDAX">      1.00000000</i>
   <i name="AGGAX">      1.00000000</i>
   <i name="ALDAC">      1.00000000</i>
   <i name="AGGAC">      1.00000000</i>
   <i type="int" name="NKREDX">     1</i>
   <i type="int" name="NKREDY">     1</i>
   <i type="int" name="NKREDZ">     1</i>
   <i type="logical" name="SHIFTRED"> F  </i>
   <i type="logical" name="ODDONLY"> F  </i>
   <i type="logical" name="EVENONLY"> F  </i>
   <i type="int" name="LMAXFOCK">     0</i>
   <i type="int" name="NMAXFOCKAE">     0</i>
   <i type="logical" name="LFOCKAEDFT"> F  </i>
   <i name="HFSCREEN">      0.00000000</i>
   <i name="HFSCREENC">      0.00000000</i>
   <i type="int" name="NBANDSGWLOW">     0</i>
  </separator>
  <separator name="vdW DFT" >
   <i type="logical" name="LUSE_VDW"> F  </i>
   <i name="Zab_VDW">     -0.84910000</i>
   <i name="PARAM1">      0.12340000</i>
   <i name="PARAM2">      1.00000000</i>
   <i name="PARAM3">      0.00000000</i>
  </separator>
  <separator name="model GW" >
   <i type="int" name="MODEL_GW">     0</i>
   <i name="MODEL_EPS0">     19.51309445</i>
   <i name="MODEL_ALPHA">      1.00000000</i>
  </separator>
  <separator name="linear response parameters" >
   <i type="logical" name="LEPSILON"> T  </i>
   <i type="logical" name="LRPA"> F  </i>
   <i type="logical" name="LNABLA"> F  </i>
   <i type="logical" name="LVEL"> F  </i>
   <i type="int" name="KINTER">     0</i>
   <i name="CSHIFT">      0.10000000</i>
   <i name="OMEGAMAX">     -1.00000000</i>
   <i name="DEG_THRESHOLD">      0.00200000</i>
   <i name="RTIME">     -0.10000000</i>
   <i name="WPLASMAI">      0.00000000</i>
   <v name="DFIELD">      0.00000000      0.00000000      0.00000000</v>
   <v name="WPLASMA">      0.00000000      0.00000000      0.00000000      0.00000000      0.00000000      0.00000000      0.00000000      0.00000000      0.00000000</v>
  </separator>
  <separator name="orbital magnetization" >
   <i type="logical" name="NUCIND"> F  </i>
   <v name="MAGPOS">      0.00000000      0.00000000      0.00000000</v>
   <i type="logical" name="LNICSALL"> T  </i>
   <i type="logical" name="ORBITALMAG"> F  </i>
   <i type="logical" name="LMAGBLOCH"> F  </i>
   <i type="logical" name="LCHIMAG"> F  </i>
   <i type="logical" name="LGAUGE"> T  </i>
   <i type="int" name="MAGATOM">     0</i>
   <v name="MAGDIPOL">      0.00000000      0.00000000      0.00000000</v>
   <v name="AVECCONST">      0.00000000      0.00000000      0.00000000</v>
  </separator>
  <separator name="response functions" >
   <i type="logical" name="LADDER"> F  </i>
   <i type="logical" name="LRPAFORCE"> F  </i>
   <i type="logical" name="LFXC"> F  </i>
   <i type="logical" name="LHARTREE"> T  </i>
   <i type="int" name="IBSE">     0</i>
   <v type="int" name="KPOINT">    -1     0     0     0</v>
   <i type="logical" name="LTCTE"> F  </i>
   <i type="logical" name="LTETE"> F  </i>
   <i type="logical" name="LTRIPLET"> F  </i>
   <i type="logical" name="LFXCEPS"> F  </i>
   <i type="logical" name="LFXHEG"> F  </i>
   <i type="int" name="NATURALO">     2</i>
   <i type="logical" name="L2ORDER"> F  </i>
   <i type="logical" name="LMP2LT"> F  </i>
   <i type="logical" name="LUSEW"> F  </i>
   <i name="ENCUTGW">     -2.00000000</i>
   <i name="ENCUTGWSOFT">     -2.00000000</i>
   <i name="ENCUTLF">     -1.00000000</i>
   <i type="int" name="LMAXMP2">    -1</i>
   <i name="SCISSOR">      0.00000000</i>
   <i type="int" name="NOMEGA">     0</i>
   <i type="int" name="NOMEGAR">     0</i>
   <i type="int" name="NBANDSGW">    -1</i>
   <i type="int" name="NBANDSO">    -1</i>
   <i type="int" name="NBANDSV">    -1</i>
   <i type="int" name="NELM">   100</i>
   <i type="int" name="NELMHF">     1</i>
   <i type="int" name="DIM">     3</i>
   <i type="int" name="ANTIRES">     0</i>
   <i name="OMEGAMAX">    -30.00000000</i>
   <i name="OMEGAMIN">    -30.00000000</i>
   <i name="OMEGATL">   -200.00000000</i>
   <i type="int" name="OMEGAGRID">   140</i>
   <i name="CSHIFT">     -0.10000000</i>
   <i type="logical" name="SELFENERGY"> F  </i>
   <i type="logical" name="LSPECTRAL"> F  </i>
   <i type="logical" name="LSPECTRALGW"> F  </i>
   <i type="logical" name="LSINGLES"> F  </i>
   <i type="logical" name="LFERMIGW"> F  </i>
   <i type="logical" name="ODDONLYGW"> F  </i>
   <i type="logical" name="EVENONLYGW"> F  </i>
   <i type="int" name="NKREDLFX">     1</i>
   <i type="int" name="NKREDLFY">     1</i>
   <i type="int" name="NKREDLFZ">     1</i>
   <i type="int" name="MAXMEM">  2800</i>
   <i type="int" name="TELESCOPE">     0</i>
   <i type="int" name="TAUPAR">     1</i>
   <i type="int" name="OMEGAPAR">    -1</i>
   <i name="LAMBDA">      1.00000000</i>
  </separator>
  <separator name="External order field" >
   <i name="OFIELD_KAPPA">      0.00000000</i>
   <v name="OFIELD_K">      0.00000000      0.00000000      0.00000000</v>
   <i name="OFIELD_Q6_NEAR">      0.00000000</i>
   <i name="OFIELD_Q6_FAR">      0.00000000</i>
   <i name="OFIELD_A">      0.00000000</i>
  </separator>
 </parameters>
 <atominfo>
  <atoms>       4 </atoms>
  <types>       2 </types>
  <array name="atoms" >
   <dimension dim="1">ion</dimension>
   <field type="string">element</field>
   <field type="int">atomtype</field>
   <set>
    <rc><c>In</c><c>   1</c></rc>
    <rc><c>In</c><c>   1</c></rc>
    <rc><c>Br</c><c>   2</c></rc>
    <rc><c>Br</c><c>   2</c></rc>
   </set>
  </array>
  <array name="atomtypes" >
   <dimension dim="1">type</dimension>
   <field type="int">atomspertype</field>
   <field type="string">element</field>
   <field>mass</field>
   <field>valence</field>
   <field type="string">pseudopotential</field>
   <set>
    <rc><c>   2</c><c>In</c><c>    114.82000000</c><c>     13.00000000</c><c>  PAW_PBE In_d 06Sep2000                </c></rc>
    <rc><c>   2</c><c>Br</c><c>     79.90400000</c><c>      7.00000000</c><c>  PAW_PBE Br 06Sep2000                  </c></rc>
   </set>
  </array>
 </atominfo>
 <structure name="initialpos" >
  <crystal>
   <varray name="basis" >
    <v>       2.29437496       6.15962664       0.00000000 </v>
    <v>      -2.29437496       6.15962664       0.00000000 </v>
    <v>       0.00000000       0.00000000       4.60241853 </v>
   </varray>
   <i name="volume">    130.08729634 </i>
   <varray name="rec_basis" >
    <v>       0.21792428       0.08117375       0.00000000 </v>
    <v>      -0.21792428       0.08117375       0.00000000 </v>
    <v>       0.00000000       0.00000000       0.21727707 </v>
   </varray>
  </crystal>
  <varray name="positions" >
   <v>       0.39344638       0.39344630       0.25000002 </v>
   <v>       0.60655378       0.60655378       0.75000006 </v>
   <v>       0.15127386       0.15127378       0.25000002 </v>
   <v>       0.84872630       0.84872630       0.75000006 </v>
  </varray>
 </structure>
 <calculation>
  <scstep>
   <time name="dav">    7.02    7.02</time>
   <time name="total">    7.05    7.06</time>
   <energy>
    <i name="alphaZ">     83.51157465 </i>
    <i name="ewald">  -2695.85784043 </i>
    <i name="hartreedc">  -1162.18745605 </i>
    <i name="XCdc">    101.88547038 </i>
    <i name="pawpsdc">   3352.04040698 </i>
    <i name="pawaedc">  -3321.07599654 </i>
    <i name="eentropy">     -0.00005719 </i>
    <i name="bandstr">    -67.17504980 </i>
    <i name="atom">   3890.55015248 </i>
    <i name="e_fr_energy">    181.69120449 </i>
    <i name="e_wo_entrp">    181.69126168 </i>
    <i name="e_0_energy">    181.69123308 </i>
   </energy>
  </scstep>
  <scstep>
   <time name="dav">    8.60    8.60</time>
   <time name="total">    8.60    8.61</time>
   <energy>
    <i name="e_fr_energy">     -0.50745981 </i>
    <i name="e_wo_entrp">     -0.50742828 </i>
    <i name="e_0_energy">     -0.50744405 </i>
   </energy>
  </scstep>
  <scstep>
   <time name="dav">    8.97    8.97</time>
   <time name="total">    8.97    8.98</time>
   <energy>
    <i name="e_fr_energy">    -11.24572462 </i>
    <i name="e_wo_entrp">    -11.24572462 </i>
    <i name="e_0_energy">    -11.24572462 </i>
   </energy>
  </scstep>
  <scstep>
   <time name="dav">   11.61   11.62</time>
   <time name="total">   11.61   11.62</time>
   <energy>
    <i name="e_fr_energy">    -11.46092059 </i>
    <i name="e_wo_entrp">    -11.46092059 </i>
    <i name="e_0_energy">    -11.46092059 </i>
   </energy>
  </scstep>
  <scstep>
   <time name="dav">    9.40    9.42</time>
   <time name="total">    9.90    9.92</time>
   <energy>
    <i name="e_fr_energy">    -11.46164254 </i>
    <i name="e_wo_entrp">    -11.46164254 </i>
    <i name="e_0_energy">    -11.46164254 </i>
   </energy>
  </scstep>
  <scstep>
   <time name="dav">   10.10   10.10</time>
   <time name="total">   10.62   10.63</time>
   <energy>
    <i name="e_fr_energy">    -11.15327664 </i>
    <i name="e_wo_entrp">    -11.15327664 </i>
    <i name="e_0_energy">    -11.15327664 </i>
   </energy>
  </scstep>
  <scstep>
   <time name="dav">   10.18   10.19</time>
   <time name="total">   10.70   10.71</time>
   <energy>
    <i name="e_fr_energy">    -11.13124310 </i>
    <i name="e_wo_entrp">    -11.13124310 </i>
    <i name="e_0_energy">    -11.13124310 </i>
   </energy>
  </scstep>
  <scstep>
   <time name="dav">    8.02    8.02</time>
   <time name="total">    8.54    8.54</time>
   <energy>
    <i name="e_fr_energy">    -11.13497062 </i>
    <i name="e_wo_entrp">    -11.13497062 </i>
    <i name="e_0_energy">    -11.13497062 </i>
   </energy>
  </scstep>
  <scstep>
   <time name="dav">   11.10   11.11</time>
   <time name="total">   11.62   11.63</time>
   <energy>
    <i name="e_fr_energy">    -11.13523246 </i>
    <i name="e_wo_entrp">    -11.13523246 </i>
    <i name="e_0_energy">    -11.13523246 </i>
   </energy>
  </scstep>
  <scstep>
   <time name="dav">    8.04    8.04</time>
   <time name="total">    8.56    8.56</time>
   <energy>
    <i name="e_fr_energy">    -11.13548772 </i>
    <i name="e_wo_entrp">    -11.13548772 </i>
    <i name="e_0_energy">    -11.13548772 </i>
   </energy>
  </scstep>
  <scstep>
   <time name="dav">    9.43    9.43</time>
   <time name="total">    9.95    9.95</time>
   <energy>
    <i name="e_fr_energy">    -11.13548200 </i>
    <i name="e_wo_entrp">    -11.13548200 </i>
    <i name="e_0_energy">    -11.13548200 </i>
   </energy>
  </scstep>
  <scstep>
   <time name="dav">    8.00    8.01</time>
   <time name="total">    8.52    8.52</time>
   <energy>
    <i name="e_fr_energy">    -11.13548712 </i>
    <i name="e_wo_entrp">    -11.13548712 </i>
    <i name="e_0_energy">    -11.13548712 </i>
   </energy>
  </scstep>
  <scstep>
   <time name="dav">   12.51   12.51</time>
   <time name="total">   13.03   13.03</time>
   <energy>
    <i name="e_fr_energy">    -11.13548741 </i>
    <i name="e_wo_entrp">    -11.13548741 </i>
    <i name="e_0_energy">    -11.13548741 </i>
   </energy>
  </scstep>
  <scstep>
   <time name="dav">    7.76    7.77</time>
   <time name="total">    8.28    8.29</time>
   <energy>
    <i name="e_fr_energy">    -11.13548744 </i>
    <i name="e_wo_entrp">    -11.13548744 </i>
    <i name="e_0_energy">    -11.13548744 </i>
   </energy>
  </scstep>
  <scstep>
   <time name="dav">   10.54   10.55</time>
   <time name="total">   11.06   11.07</time>
   <energy>
    <i name="e_fr_energy">    -11.13548746 </i>
    <i name="e_wo_entrp">    -11.13548746 </i>
    <i name="e_0_energy">    -11.13548746 </i>
   </energy>
  </scstep>
  <scstep>
   <time name="dav">    7.53    7.53</time>
   <time name="total">    7.55    7.55</time>
   <energy>
    <i name="alphaZ">     83.51157465 </i>
    <i name="ewald">  -2695.85784043 </i>
    <i name="hartreedc">  -1160.69175182 </i>
    <i name="XCdc">    102.47520576 </i>
    <i name="pawpsdc">   3804.49307116 </i>
    <i name="pawaedc">  -3773.25592947 </i>
    <i name="eentropy">     -0.00000000 </i>
    <i name="bandstr">   -262.35996978 </i>
    <i name="atom">   3890.55015248 </i>
    <i name="e_fr_energy">    -11.13548746 </i>
    <i name="e_wo_entrp">    -11.13548746 </i>
    <i name="e_0_energy">    -11.13548746 </i>
   </energy>
  </scstep>
  <structure>
   <crystal>
    <varray name="basis" >
     <v>       2.29437496       6.15962664       0.00000000 </v>
     <v>      -2.29437496       6.15962664       0.00000000 </v>
     <v>       0.00000000       0.00000000       4.60241853 </v>
    </varray>
    <i name="volume">    130.08729634 </i>
    <varray name="rec_basis" >
     <v>       0.21792428       0.08117375       0.00000000 </v>
     <v>      -0.21792428       0.08117375       0.00000000 </v>
     <v>       0.00000000       0.00000000       0.21727707 </v>
    </varray>
   </crystal>
   <varray name="positions" >
    <v>       0.39344638       0.39344630       0.25000002 </v>
    <v>       0.60655378       0.60655378       0.75000006 </v>
    <v>       0.15127386       0.15127378       0.25000002 </v>
    <v>       0.84872630       0.84872630       0.75000006 </v>
   </varray>
  </structure>
  <varray name="forces" >
   <v>      -0.00000003       0.02699275       0.00000007 </v>
   <v>       0.00000003      -0.02699275      -0.00000007 </v>
   <v>      -0.00000014      -0.09924808      -0.00000000 </v>
   <v>       0.00000014       0.09924808       0.00000000 </v>
  </varray>
  <varray name="stress" >
   <v>       5.68243668      -0.00000051       0.00000099 </v>
   <v>      -0.00000069      11.13282737      -0.00000156 </v>
   <v>       0.00000108      -0.00000155       6.67364217 </v>
  </varray>
  <energy>
   <i name="e_fr_energy">    -11.13548746 </i>
   <i name="e_wo_entrp">    -11.13548746 </i>
   <i name="e_0_energy">     -0.00000000 </i>
  </energy>
  <scstep>
   <time name="total">    9.17    9.17</time>
   <energy>
    <i name="e_fr_energy">     -2.03964999 </i>
    <i name="e_wo_entrp">     -2.03964999 </i>
    <i name="e_0_energy">     -2.03964999 </i>
   </energy>
  </scstep>
  <scstep>
   <time name="total">    7.12    7.12</time>
   <energy>
    <i name="e_fr_energy">     -2.18290628 </i>
    <i name="e_wo_entrp">     -2.18290628 </i>
    <i name="e_0_energy">     -2.18290628 </i>
   </energy>
  </scstep>
  <scstep>
   <time name="total">    8.04    8.06</time>
   <energy>
    <i name="e_fr_energy">     -2.18435178 </i>
    <i name="e_wo_entrp">     -2.18435178 </i>
    <i name="e_0_energy">     -2.18435178 </i>
   </energy>
  </scstep>
  <scstep>
   <time name="total">    8.04    8.04</time>
   <energy>
    <i name="e_fr_energy">     -2.18454386 </i>
    <i name="e_wo_entrp">     -2.18454386 </i>
    <i name="e_0_energy">     -2.18454386 </i>
   </energy>
  </scstep>
  <scstep>
   <time name="total">    8.61    8.62</time>
   <energy>
    <i name="e_fr_energy">     -2.18454948 </i>
    <i name="e_wo_entrp">     -2.18454948 </i>
    <i name="e_0_energy">     -2.18454948 </i>
   </energy>
  </scstep>
  <scstep>
   <time name="total">    8.67    8.67</time>
   <energy>
    <i name="e_fr_energy">     -2.18454955 </i>
    <i name="e_wo_entrp">     -2.18454955 </i>
    <i name="e_0_energy">     -2.18454955 </i>
   </energy>
  </scstep>
  <scstep>
   <time name="total">    8.44    8.44</time>
   <energy>
    <i name="e_fr_energy">     -2.18454957 </i>
    <i name="e_wo_entrp">     -2.18454957 </i>
    <i name="e_0_energy">     -2.18454957 </i>
   </energy>
  </scstep>
  <scstep>
   <time name="total">    8.50    8.51</time>
   <energy>
    <i name="e_fr_energy">     -2.18454956 </i>
    <i name="e_wo_entrp">     -2.18454956 </i>
    <i name="e_0_energy">     -2.18454956 </i>
   </energy>
  </scstep>
  <scstep>
   <time name="total">    6.94    6.94</time>
   <energy>
    <i name="e_fr_energy">     -2.18454956 </i>
    <i name="e_wo_entrp">     -2.18454956 </i>
    <i name="e_0_energy">     -2.18454956 </i>
   </energy>
  </scstep>
  <scstep>
   <time name="total">    6.56    6.56</time>
   <energy>
    <i name="e_fr_energy">     -2.18454956 </i>
    <i name="e_wo_entrp">     -2.18454956 </i>
    <i name="e_0_energy">     -2.18454956 </i>
   </energy>
  </scstep>
  <scstep>
   <time name="total">    5.95    5.98</time>
   <energy>
    <i name="e_fr_energy">     -2.18454956 </i>
    <i name="e_wo_entrp">     -2.18454956 </i>
    <i name="e_0_energy">     -2.18454956 </i>
   </energy>
  </scstep>
  <scstep>
   <time name="total">    9.24    9.24</time>
   <energy>
    <i name="e_fr_energy">     -2.40823258 </i>
    <i name="e_wo_entrp">     -2.40823258 </i>
    <i name="e_0_energy">     -2.40823258 </i>
   </energy>
  </scstep>
  <scstep>
   <time name="total">    6.97    6.97</time>
   <energy>
    <i name="e_fr_energy">     -2.58981988 </i>
    <i name="e_wo_entrp">     -2.58981988 </i>
    <i name="e_0_energy">     -2.58981988 </i>
   </energy>
  </scstep>
  <scstep>
   <time name="total">    8.14    8.15</time>
   <energy>
    <i name="e_fr_energy">     -2.59226247 </i>
    <i name="e_wo_entrp">     -2.59226247 </i>
    <i name="e_0_energy">     -2.59226247 </i>
   </energy>
  </scstep>
  <scstep>
   <time name="total">    8.26    8.27</time>
   <energy>
    <i name="e_fr_energy">     -2.59261511 </i>
    <i name="e_wo_entrp">     -2.59261511 </i>
    <i name="e_0_energy">     -2.59261511 </i>
   </energy>
  </scstep>
  <scstep>
   <time name="total">    8.57    8.57</time>
   <energy>
    <i name="e_fr_energy">     -2.59262490 </i>
    <i name="e_wo_entrp">     -2.59262490 </i>
    <i name="e_0_energy">     -2.59262490 </i>
   </energy>
  </scstep>
  <scstep>
   <time name="total">    8.58    8.58</time>
   <energy>
    <i name="e_fr_energy">     -2.59262486 </i>
    <i name="e_wo_entrp">     -2.59262486 </i>
    <i name="e_0_energy">     -2.59262486 </i>
   </energy>
  </scstep>
  <scstep>
   <time name="total">    8.36    8.38</time>
   <energy>
    <i name="e_fr_energy">     -2.59262486 </i>
    <i name="e_wo_entrp">     -2.59262486 </i>
    <i name="e_0_energy">     -2.59262486 </i>
   </energy>
  </scstep>
  <scstep>
   <time name="total">    8.45    8.46</time>
   <energy>
    <i name="e_fr_energy">     -2.59262485 </i>
    <i name="e_wo_entrp">     -2.59262485 </i>
    <i name="e_0_energy">     -2.59262485 </i>
   </energy>
  </scstep>
  <scstep>
   <time name="total">    7.23    7.23</time>
   <energy>
    <i name="e_fr_energy">     -2.59262485 </i>
    <i name="e_wo_entrp">     -2.59262485 </i>
    <i name="e_0_energy">     -2.59262485 </i>
   </energy>
  </scstep>
  <scstep>
   <time name="total">    6.42    6.42</time>
   <energy>
    <i name="e_fr_energy">     -2.59262485 </i>
    <i name="e_wo_entrp">     -2.59262485 </i>
    <i name="e_0_energy">     -2.59262485 </i>
   </energy>
  </scstep>
  <scstep>
   <time name="total">    5.99    5.99</time>
   <energy>
    <i name="e_fr_energy">     -2.59262485 </i>
    <i name="e_wo_entrp">     -2.59262485 </i>
    <i name="e_0_energy">     -2.59262485 </i>
   </energy>
  </scstep>
  <scstep>
   <time name="total">    9.20    9.21</time>
   <energy>
    <i name="e_fr_energy">     -2.51421031 </i>
    <i name="e_wo_entrp">     -2.51421031 </i>
    <i name="e_0_energy">     -2.51421031 </i>
   </energy>
  </scstep>
  <scstep>
   <time name="total">    7.02    7.02</time>
   <energy>
    <i name="e_fr_energy">     -2.76113365 </i>
    <i name="e_wo_entrp">     -2.76113365 </i>
    <i name="e_0_energy">     -2.76113365 </i>
   </energy>
  </scstep>
  <scstep>
   <time name="total">    8.00    8.01</time>
   <energy>
    <i name="e_fr_energy">     -2.76351303 </i>
    <i name="e_wo_entrp">     -2.76351303 </i>
    <i name="e_0_energy">     -2.76351303 </i>
   </energy>
  </scstep>
  <scstep>
   <time name="total">    7.80    7.81</time>
   <energy>
    <i name="e_fr_energy">     -2.76394217 </i>
    <i name="e_wo_entrp">     -2.76394217 </i>
    <i name="e_0_energy">     -2.76394217 </i>
   </energy>
  </scstep>
  <scstep>
   <time name="total">    8.62    8.62</time>
   <energy>
    <i name="e_fr_energy">     -2.76395300 </i>
    <i name="e_wo_entrp">     -2.76395300 </i>
    <i name="e_0_energy">     -2.76395300 </i>
   </energy>
  </scstep>
  <scstep>
   <time name="total">    8.62    8.63</time>
   <energy>
    <i name="e_fr_energy">     -2.76395333 </i>
    <i name="e_wo_entrp">     -2.76395333 </i>
    <i name="e_0_energy">     -2.76395333 </i>
   </energy>
  </scstep>
  <scstep>
   <time name="total">    8.59    8.59</time>
   <energy>
    <i name="e_fr_energy">     -2.76395337 </i>
    <i name="e_wo_entrp">     -2.76395337 </i>
    <i name="e_0_energy">     -2.76395337 </i>
   </energy>
  </scstep>
  <scstep>
   <time name="total">    8.25    8.25</time>
   <energy>
    <i name="e_fr_energy">     -2.76395337 </i>
    <i name="e_wo_entrp">     -2.76395337 </i>
    <i name="e_0_energy">     -2.76395337 </i>
   </energy>
  </scstep>
  <scstep>
   <time name="total">    7.17    7.17</time>
   <energy>
    <i name="e_fr_energy">     -2.76395337 </i>
    <i name="e_wo_entrp">     -2.76395337 </i>
    <i name="e_0_energy">     -2.76395337 </i>
   </energy>
  </scstep>
  <scstep>
   <time name="total">    6.10    6.10</time>
   <energy>
    <i name="e_fr_energy">     -2.76395337 </i>
    <i name="e_wo_entrp">     -2.76395337 </i>
    <i name="e_0_energy">     -2.76395337 </i>
   </energy>
  </scstep>
  <varray name="epsilon_rpa" >
   <v>       7.07746736       0.00000104       0.00000097 </v>
   <v>      -0.00000079       8.21274829       0.00000032 </v>
   <v>       0.00000122      -0.00000013       8.68938635 </v>
  </varray>
  <kpoints>
   <generation param="Gamma">
    <v type="int" name="divisions">       8        8       12 </v>
    <v name="usershift">      0.00000000       0.00000000       0.00000000 </v>
    <v name="genvec1">      0.12500000       0.00000000       0.00000000 </v>
    <v name="genvec2">      0.00000000       0.12500000       0.00000000 </v>
    <v name="genvec3">      0.00000000       0.00000000       0.08333333 </v>
    <v name="shift">      0.00000000       0.00000000       0.00000000 </v>
   </generation>
   <varray name="kpointlist" >
    <v>       0.00000000       0.00000000       0.00000000 </v>
    <v>       0.12500000      -0.00000000       0.00000000 </v>
    <v>       0.25000000      -0.00000000       0.00000000 </v>
    <v>       0.37500000      -0.00000000       0.00000000 </v>
    <v>       0.50000000      -0.00000000       0.00000000 </v>
    <v>      -0.00000000       0.12500000       0.00000000 </v>
    <v>       0.12500000       0.12500000       0.00000000 </v>
    <v>       0.25000000       0.12500000       0.00000000 </v>
    <v>       0.37500000       0.12500000       0.00000000 </v>
    <v>       0.50000000       0.12500000       0.00000000 </v>
    <v>      -0.37500000       0.12500000       0.00000000 </v>
    <v>      -0.25000000       0.12500000       0.00000000 </v>
    <v>      -0.12500000       0.12500000       0.00000000 </v>
    <v>      -0.00000000       0.25000000       0.00000000 </v>
    <v>       0.12500000       0.25000000       0.00000000 </v>
    <v>       0.25000000       0.25000000       0.00000000 </v>
    <v>       0.37500000       0.25000000       0.00000000 </v>
    <v>       0.50000000       0.25000000       0.00000000 </v>
    <v>      -0.37500000       0.25000000       0.00000000 </v>
    <v>      -0.25000000       0.25000000       0.00000000 </v>
    <v>      -0.12500000       0.25000000       0.00000000 </v>
    <v>      -0.00000000       0.37500000       0.00000000 </v>
    <v>       0.12500000       0.37500000       0.00000000 </v>
    <v>       0.25000000       0.37500000       0.00000000 </v>
    <v>       0.37500000       0.37500000       0.00000000 </v>
    <v>       0.50000000       0.37500000       0.00000000 </v>
    <v>      -0.37500000       0.37500000       0.00000000 </v>
    <v>      -0.25000000       0.37500000       0.00000000 </v>
    <v>      -0.12500000       0.37500000       0.00000000 </v>
    <v>      -0.00000000       0.50000000       0.00000000 </v>
    <v>       0.12500000       0.50000000       0.00000000 </v>
    <v>       0.25000000       0.50000000       0.00000000 </v>
    <v>       0.37500000       0.50000000       0.00000000 </v>
    <v>       0.50000000       0.50000000       0.00000000 </v>
    <v>       0.00000000       0.00000000       0.08333333 </v>
    <v>       0.12500000      -0.00000000       0.08333333 </v>
    <v>       0.25000000      -0.00000000       0.08333333 </v>
    <v>       0.37500000      -0.00000000       0.08333333 </v>
    <v>       0.50000000      -0.00000000       0.08333333 </v>
    <v>      -0.37500000       0.00000000       0.08333333 </v>
    <v>      -0.25000000       0.00000000       0.08333333 </v>
    <v>      -0.12500000       0.00000000       0.08333333 </v>
    <v>      -0.00000000       0.12500000       0.08333333 </v>
    <v>       0.12500000       0.12500000       0.08333333 </v>
    <v>       0.25000000       0.12500000       0.08333333 </v>
    <v>       0.37500000       0.12500000       0.08333333 </v>
    <v>       0.50000000       0.12500000       0.08333333 </v>
    <v>      -0.37500000       0.12500000       0.08333333 </v>
    <v>      -0.25000000       0.12500000       0.08333333 </v>
    <v>      -0.12500000       0.12500000       0.08333333 </v>
    <v>      -0.00000000       0.25000000       0.08333333 </v>
    <v>       0.12500000       0.25000000       0.08333333 </v>
    <v>       0.25000000       0.25000000       0.08333333 </v>
    <v>       0.37500000       0.25000000       0.08333333 </v>
    <v>       0.50000000       0.25000000       0.08333333 </v>
    <v>      -0.37500000       0.25000000       0.08333333 </v>
    <v>      -0.25000000       0.25000000       0.08333333 </v>
    <v>      -0.12500000       0.25000000       0.08333333 </v>
    <v>      -0.00000000       0.37500000       0.08333333 </v>
    <v>       0.12500000       0.37500000       0.08333333 </v>
    <v>       0.25000000       0.37500000       0.08333333 </v>
    <v>       0.37500000       0.37500000       0.08333333 </v>
    <v>       0.50000000       0.37500000       0.08333333 </v>
    <v>      -0.37500000       0.37500000       0.08333333 </v>
    <v>      -0.25000000       0.37500000       0.08333333 </v>
    <v>      -0.12500000       0.37500000       0.08333333 </v>
    <v>      -0.00000000       0.50000000       0.08333333 </v>
    <v>       0.12500000       0.50000000       0.08333333 </v>
    <v>       0.25000000       0.50000000       0.08333333 </v>
    <v>       0.37500000       0.50000000       0.08333333 </v>
    <v>       0.50000000       0.50000000       0.08333333 </v>
    <v>      -0.37500000       0.50000000       0.08333333 </v>
    <v>      -0.25000000       0.50000000       0.08333333 </v>
    <v>      -0.12500000       0.50000000       0.08333333 </v>
    <v>       0.00000000      -0.37500000       0.08333333 </v>
    <v>       0.12500000      -0.37500000       0.08333333 </v>
    <v>       0.25000000      -0.37500000       0.08333333 </v>
    <v>       0.37500000      -0.37500000       0.08333333 </v>
    <v>       0.50000000      -0.37500000       0.08333333 </v>
    <v>      -0.37500000      -0.37500000       0.08333333 </v>
    <v>      -0.25000000      -0.37500000       0.08333333 </v>
    <v>      -0.12500000      -0.37500000       0.08333333 </v>
    <v>       0.00000000      -0.25000000       0.08333333 </v>
    <v>       0.12500000      -0.25000000       0.08333333 </v>
    <v>       0.25000000      -0.25000000       0.08333333 </v>
    <v>       0.37500000      -0.25000000       0.08333333 </v>
    <v>       0.50000000      -0.25000000       0.08333333 </v>
    <v>      -0.37500000      -0.25000000       0.08333333 </v>
    <v>      -0.25000000      -0.25000000       0.08333333 </v>
    <v>      -0.12500000      -0.25000000       0.08333333 </v>
    <v>       0.00000000      -0.12500000       0.08333333 </v>
    <v>       0.12500000      -0.12500000       0.08333333 </v>
    <v>       0.25000000      -0.12500000       0.08333333 </v>
    <v>       0.37500000      -0.12500000       0.08333333 </v>
    <v>       0.50000000      -0.12500000       0.08333333 </v>
    <v>      -0.37500000      -0.12500000       0.08333333 </v>
    <v>      -0.25000000      -0.12500000       0.08333333 </v>
    <v>      -0.12500000      -0.12500000       0.08333333 </v>
    <v>       0.00000000       0.00000000       0.16666667 </v>
    <v>       0.12500000      -0.00000000       0.16666667 </v>
    <v>       0.25000000      -0.00000000       0.16666667 </v>
    <v>       0.37500000      -0.00000000       0.16666667 </v>
    <v>       0.50000000      -0.00000000       0.16666667 </v>
    <v>      -0.37500000       0.00000000       0.16666667 </v>
    <v>      -0.25000000       0.00000000       0.16666667 </v>
    <v>      -0.12500000       0.00000000       0.16666667 </v>
    <v>      -0.00000000       0.12500000       0.16666667 </v>
    <v>       0.12500000       0.12500000       0.16666667 </v>
    <v>       0.25000000       0.12500000       0.16666667 </v>
    <v>       0.37500000       0.12500000       0.16666667 </v>
    <v>       0.50000000       0.12500000       0.16666667 </v>
    <v>      -0.37500000       0.12500000       0.16666667 </v>
    <v>      -0.25000000       0.12500000       0.16666667 </v>
    <v>      -0.12500000       0.12500000       0.16666667 </v>
    <v>      -0.00000000       0.25000000       0.16666667 </v>
    <v>       0.12500000       0.25000000       0.16666667 </v>
    <v>       0.25000000       0.25000000       0.16666667 </v>
    <v>       0.37500000       0.25000000       0.16666667 </v>
    <v>       0.50000000       0.25000000       0.16666667 </v>
    <v>      -0.37500000       0.25000000       0.16666667 </v>
    <v>      -0.25000000       0.25000000       0.16666667 </v>
    <v>      -0.12500000       0.25000000       0.16666667 </v>
    <v>      -0.00000000       0.37500000       0.16666667 </v>
    <v>       0.12500000       0.37500000       0.16666667 </v>
    <v>       0.25000000       0.37500000       0.16666667 </v>
    <v>       0.37500000       0.37500000       0.16666667 </v>
    <v>       0.50000000       0.37500000       0.16666667 </v>
    <v>      -0.37500000       0.37500000       0.16666667 </v>
    <v>      -0.25000000       0.37500000       0.16666667 </v>
    <v>      -0.12500000       0.37500000       0.16666667 </v>
    <v>      -0.00000000       0.50000000       0.16666667 </v>
    <v>       0.12500000       0.50000000       0.16666667 </v>
    <v>       0.25000000       0.50000000       0.16666667 </v>
    <v>       0.37500000       0.50000000       0.16666667 </v>
    <v>       0.50000000       0.50000000       0.16666667 </v>
    <v>      -0.37500000       0.50000000       0.16666667 </v>
    <v>      -0.25000000       0.50000000       0.16666667 </v>
    <v>      -0.12500000       0.50000000       0.16666667 </v>
    <v>       0.00000000      -0.37500000       0.16666667 </v>
    <v>       0.12500000      -0.37500000       0.16666667 </v>
    <v>       0.25000000      -0.37500000       0.16666667 </v>
    <v>       0.37500000      -0.37500000       0.16666667 </v>
    <v>       0.50000000      -0.37500000       0.16666667 </v>
    <v>      -0.37500000      -0.37500000       0.16666667 </v>
    <v>      -0.25000000      -0.37500000       0.16666667 </v>
    <v>      -0.12500000      -0.37500000       0.16666667 </v>
    <v>       0.00000000      -0.25000000       0.16666667 </v>
    <v>       0.12500000      -0.25000000       0.16666667 </v>
    <v>       0.25000000      -0.25000000       0.16666667 </v>
    <v>       0.37500000      -0.25000000       0.16666667 </v>
    <v>       0.50000000      -0.25000000       0.16666667 </v>
    <v>      -0.37500000      -0.25000000       0.16666667 </v>
    <v>      -0.25000000      -0.25000000       0.16666667 </v>
    <v>      -0.12500000      -0.25000000       0.16666667 </v>
    <v>       0.00000000      -0.12500000       0.16666667 </v>
    <v>       0.12500000      -0.12500000       0.16666667 </v>
    <v>       0.25000000      -0.12500000       0.16666667 </v>
    <v>       0.37500000      -0.12500000       0.16666667 </v>
    <v>       0.50000000      -0.12500000       0.16666667 </v>
    <v>      -0.37500000      -0.12500000       0.16666667 </v>
    <v>      -0.25000000      -0.12500000       0.16666667 </v>
    <v>      -0.12500000      -0.12500000       0.16666667 </v>
    <v>       0.00000000       0.00000000       0.25000000 </v>
    <v>       0.12500000      -0.00000000       0.25000000 </v>
    <v>       0.25000000      -0.00000000       0.25000000 </v>
    <v>       0.37500000      -0.00000000       0.25000000 </v>
    <v>       0.50000000      -0.00000000       0.25000000 </v>
    <v>      -0.37500000       0.00000000       0.25000000 </v>
    <v>      -0.25000000       0.00000000       0.25000000 </v>
    <v>      -0.12500000       0.00000000       0.25000000 </v>
    <v>      -0.00000000       0.12500000       0.25000000 </v>
    <v>       0.12500000       0.12500000       0.25000000 </v>
    <v>       0.25000000       0.12500000       0.25000000 </v>
    <v>       0.37500000       0.12500000       0.25000000 </v>
    <v>       0.50000000       0.12500000       0.25000000 </v>
    <v>      -0.37500000       0.12500000       0.25000000 </v>
    <v>      -0.25000000       0.12500000       0.25000000 </v>
    <v>      -0.12500000       0.12500000       0.25000000 </v>
    <v>      -0.00000000       0.25000000       0.25000000 </v>
    <v>       0.12500000       0.25000000       0.25000000 </v>
    <v>       0.25000000       0.25000000       0.25000000 </v>
    <v>       0.37500000       0.25000000       0.25000000 </v>
    <v>       0.50000000       0.25000000       0.25000000 </v>
    <v>      -0.37500000       0.25000000       0.25000000 </v>
    <v>      -0.25000000       0.25000000       0.25000000 </v>
    <v>      -0.12500000       0.25000000       0.25000000 </v>
[...]
       <r>    5.8307    0.0000 </r>
       <r>    5.8307    0.0000 </r>
       <r>    7.0993    0.0000 </r>
       <r>    7.0993    0.0000 </r>
      </set>
      <set comment="kpoint 385">
       <r>  -11.6876    1.0000 </r>
       <r>  -11.6876    1.0000 </r>
       <r>  -10.9071    1.0000 </r>
       <r>  -10.9071    1.0000 </r>
       <r>  -10.8640    1.0000 </r>
       <r>  -10.8640    1.0000 </r>
       <r>  -10.8464    1.0000 </r>
       <r>  -10.8464    1.0000 </r>
       <r>  -10.8235    1.0000 </r>
       <r>  -10.8235    1.0000 </r>
       <r>  -10.6829    1.0000 </r>
       <r>  -10.6829    1.0000 </r>
       <r>   -1.5834    1.0000 </r>
       <r>   -1.5834    1.0000 </r>
       <r>   -0.7089    1.0000 </r>
       <r>   -0.7089    1.0000 </r>
       <r>    0.2174    1.0000 </r>
       <r>    0.2174    1.0000 </r>
       <r>    1.4273    1.0000 </r>
       <r>    1.4273    1.0000 </r>
       <r>    5.5682    0.0000 </r>
       <r>    5.5682    0.0000 </r>
       <r>    7.1582    0.0000 </r>
       <r>    7.1582    0.0000 </r>
      </set>
      <set comment="kpoint 386">
       <r>  -11.6608    1.0000 </r>
       <r>  -11.6608    1.0000 </r>
       <r>  -10.9070    1.0000 </r>
       <r>  -10.9070    1.0000 </r>
       <r>  -10.8661    1.0000 </r>
       <r>  -10.8661    1.0000 </r>
       <r>  -10.8464    1.0000 </r>
       <r>  -10.8464    1.0000 </r>
       <r>  -10.8259    1.0000 </r>
       <r>  -10.8259    1.0000 </r>
       <r>  -10.7369    1.0000 </r>
       <r>  -10.7369    1.0000 </r>
       <r>   -2.0109    1.0000 </r>
       <r>   -2.0109    1.0000 </r>
       <r>   -0.3666    1.0000 </r>
       <r>   -0.3666    1.0000 </r>
       <r>    0.6391    1.0000 </r>
       <r>    0.6391    1.0000 </r>
       <r>    1.8545    1.0000 </r>
       <r>    1.8545    1.0000 </r>
       <r>    5.0020    0.0000 </r>
       <r>    5.0020    0.0000 </r>
       <r>    7.1836    0.0000 </r>
       <r>    7.1836    0.0000 </r>
      </set>
      <set comment="kpoint 387">
       <r>  -11.6309    1.0000 </r>
       <r>  -11.6309    1.0000 </r>
       <r>  -10.9028    1.0000 </r>
       <r>  -10.9028    1.0000 </r>
       <r>  -10.8728    1.0000 </r>
       <r>  -10.8728    1.0000 </r>
       <r>  -10.8453    1.0000 </r>
       <r>  -10.8453    1.0000 </r>
       <r>  -10.8304    1.0000 </r>
       <r>  -10.8304    1.0000 </r>
       <r>  -10.7920    1.0000 </r>
       <r>  -10.7920    1.0000 </r>
       <r>   -2.3168    1.0000 </r>
       <r>   -2.3168    1.0000 </r>
       <r>    0.1711    1.0000 </r>
       <r>    0.1711    1.0000 </r>
       <r>    0.7994    1.0000 </r>
       <r>    0.7994    1.0000 </r>
       <r>    2.2007    1.0000 </r>
       <r>    2.2007    1.0000 </r>
       <r>    4.6778    0.0000 </r>
       <r>    4.6778    0.0000 </r>
       <r>    6.9265    0.0000 </r>
       <r>    6.9265    0.0000 </r>
      </set>
      <set comment="kpoint 388">
       <r>  -11.6174    1.0000 </r>
       <r>  -11.6174    1.0000 </r>
       <r>  -10.8923    1.0000 </r>
       <r>  -10.8923    1.0000 </r>
       <r>  -10.8858    1.0000 </r>
       <r>  -10.8858    1.0000 </r>
       <r>  -10.8423    1.0000 </r>
       <r>  -10.8423    1.0000 </r>
       <r>  -10.8380    1.0000 </r>
       <r>  -10.8380    1.0000 </r>
       <r>  -10.8112    1.0000 </r>
       <r>  -10.8112    1.0000 </r>
       <r>   -2.4234    1.0000 </r>
       <r>   -2.4234    1.0000 </r>
       <r>    0.5451    1.0000 </r>
       <r>    0.5451    1.0000 </r>
       <r>    0.7701    1.0000 </r>
       <r>    0.7701    1.0000 </r>
       <r>    2.1862    1.0000 </r>
       <r>    2.1862    1.0000 </r>
       <r>    4.7489    0.0000 </r>
       <r>    4.7489    0.0000 </r>
       <r>    6.6792    0.0000 </r>
       <r>    6.6792    0.0000 </r>
      </set>
     </set>
    </set>
   </array>
  </eigenvalues>
  <separator name="orbital magnetization" >
   <v name="MAGDIPOLOUT">      0.00000000      0.00000000      0.00000000</v>
  </separator>
  <dos>
   <i name="efermi">      3.05093620 </i>
   <total>
    <array>
     <dimension dim="1">gridpoints</dimension>
     <dimension dim="2">spin</dimension>
     <field>energy</field>
     <field>total</field>
     <field>integrated</field>
     <set>
      <set comment="spin 1">
       <r>   -12.8102     0.0000     0.0000 </r>
       <r>   -12.7375     0.0000     0.0000 </r>
       <r>   -12.6647     0.0000     0.0000 </r>
       <r>   -12.5920     0.0000     0.0000 </r>
       <r>   -12.5193     0.0000     0.0000 </r>
       <r>   -12.4466     0.0000     0.0000 </r>
       <r>   -12.3739     0.0000     0.0000 </r>
       <r>   -12.3012     0.0000     0.0000 </r>
       <r>   -12.2285     0.0000     0.0000 </r>
       <r>   -12.1557     0.0000     0.0000 </r>
       <r>   -12.0830     0.0000     0.0000 </r>
       <r>   -12.0103     0.0000     0.0000 </r>
       <r>   -11.9376     0.0000     0.0000 </r>
       <r>   -11.8649     0.0000     0.0000 </r>
       <r>   -11.7922     0.5624     0.0409 </r>
       <r>   -11.7194     5.7749     0.4621 </r>
       <r>   -11.6467    29.1484     2.5891 </r>
       <r>   -11.5740    19.2155     4.0000 </r>
       <r>   -11.5013     0.0000     4.0000 </r>
       <r>   -11.4286     0.0000     4.0000 </r>
       <r>   -11.3559     0.0000     4.0000 </r>
       <r>   -11.2831     0.0000     4.0000 </r>
       <r>   -11.2104     0.0000     4.0000 </r>
       <r>   -11.1377     0.0000     4.0000 </r>
       <r>   -11.0650     0.0000     4.0000 </r>
       <r>   -10.9923     0.0000     4.0000 </r>
       <r>   -10.9196    17.4114     5.2661 </r>
       <r>   -10.8469   131.4920    14.8860 </r>
       <r>   -10.7741    86.0457    21.1871 </r>
       <r>   -10.7014    20.0967    22.6843 </r>
       <r>   -10.6287    17.8498    23.9958 </r>
       <r>   -10.5560     0.0451    24.0000 </r>
       <r>   -10.4833     0.0000    24.0000 </r>
       <r>   -10.4106     0.0000    24.0000 </r>
       <r>   -10.3378     0.0000    24.0000 </r>
       <r>   -10.2651     0.0000    24.0000 </r>
       <r>   -10.1924     0.0000    24.0000 </r>
       <r>   -10.1197     0.0000    24.0000 </r>
       <r>   -10.0470     0.0000    24.0000 </r>
       <r>    -9.9743     0.0000    24.0000 </r>
       <r>    -9.9015     0.0000    24.0000 </r>
       <r>    -9.8288     0.0000    24.0000 </r>
       <r>    -9.7561     0.0000    24.0000 </r>
       <r>    -9.6834     0.0000    24.0000 </r>
       <r>    -9.6107     0.0000    24.0000 </r>
       <r>    -9.5380     0.0000    24.0000 </r>
       <r>    -9.4653     0.0000    24.0000 </r>
       <r>    -9.3925     0.0000    24.0000 </r>
       <r>    -9.3198     0.0000    24.0000 </r>
       <r>    -9.2471     0.0000    24.0000 </r>
       <r>    -9.1744     0.0000    24.0000 </r>
       <r>    -9.1017     0.0000    24.0000 </r>
       <r>    -9.0290     0.0000    24.0000 </r>
       <r>    -8.9562     0.0000    24.0000 </r>
       <r>    -8.8835     0.0000    24.0000 </r>
       <r>    -8.8108     0.0000    24.0000 </r>
       <r>    -8.7381     0.0000    24.0000 </r>
       <r>    -8.6654     0.0000    24.0000 </r>
       <r>    -8.5927     0.0000    24.0000 </r>
       <r>    -8.5199     0.0000    24.0000 </r>
       <r>    -8.4472     0.0000    24.0000 </r>
       <r>    -8.3745     0.0000    24.0000 </r>
       <r>    -8.3018     0.0000    24.0000 </r>
       <r>    -8.2291     0.0000    24.0000 </r>
       <r>    -8.1564     0.0000    24.0000 </r>
       <r>    -8.0837     0.0000    24.0000 </r>
       <r>    -8.0109     0.0000    24.0000 </r>
       <r>    -7.9382     0.0000    24.0000 </r>
       <r>    -7.8655     0.0000    24.0000 </r>
       <r>    -7.7928     0.0000    24.0000 </r>
       <r>    -7.7201     0.0000    24.0000 </r>
       <r>    -7.6474     0.0000    24.0000 </r>
       <r>    -7.5746     0.0000    24.0000 </r>
       <r>    -7.5019     0.0000    24.0000 </r>
       <r>    -7.4292     0.0000    24.0000 </r>
       <r>    -7.3565     0.0000    24.0000 </r>
       <r>    -7.2838     0.0000    24.0000 </r>
       <r>    -7.2111     0.0000    24.0000 </r>
       <r>    -7.1384     0.0000    24.0000 </r>
       <r>    -7.0656     0.0000    24.0000 </r>
       <r>    -6.9929     0.0000    24.0000 </r>
       <r>    -6.9202     0.0000    24.0000 </r>
       <r>    -6.8475     0.0000    24.0000 </r>
       <r>    -6.7748     0.0000    24.0000 </r>
       <r>    -6.7021     0.0000    24.0000 </r>
       <r>    -6.6293     0.0000    24.0000 </r>
       <r>    -6.5566     0.0000    24.0000 </r>
       <r>    -6.4839     0.0000    24.0000 </r>
       <r>    -6.4112     0.0000    24.0000 </r>
       <r>    -6.3385     0.0000    24.0000 </r>
       <r>    -6.2658     0.0000    24.0000 </r>
       <r>    -6.1930     0.0000    24.0000 </r>
       <r>    -6.1203     0.0000    24.0000 </r>
       <r>    -6.0476     0.0000    24.0000 </r>
       <r>    -5.9749     0.0000    24.0000 </r>
       <r>    -5.9022     0.0000    24.0000 </r>
       <r>    -5.8295     0.0000    24.0000 </r>
       <r>    -5.7568     0.0000    24.0000 </r>
       <r>    -5.6840     0.0000    24.0000 </r>
       <r>    -5.6113     0.0000    24.0000 </r>
       <r>    -5.5386     0.0000    24.0000 </r>
       <r>    -5.4659     0.0000    24.0000 </r>
       <r>    -5.3932     0.0000    24.0000 </r>
       <r>    -5.3205     0.0000    24.0000 </r>
       <r>    -5.2477     0.0000    24.0000 </r>
       <r>    -5.1750     0.0000    24.0000 </r>
       <r>    -5.1023     0.0000    24.0000 </r>
       <r>    -5.0296     0.0000    24.0000 </r>
       <r>    -4.9569     0.0000    24.0000 </r>
       <r>    -4.8842     0.0000    24.0000 </r>
       <r>    -4.8114     0.0000    24.0000 </r>
       <r>    -4.7387     0.0000    24.0000 </r>
       <r>    -4.6660     0.0000    24.0000 </r>
       <r>    -4.5933     0.0000    24.0000 </r>
       <r>    -4.5206     0.0000    24.0000 </r>
       <r>    -4.4479     0.0000    24.0000 </r>
       <r>    -4.3752     0.0000    24.0000 </r>
       <r>    -4.3024     0.0000    24.0000 </r>
       <r>    -4.2297     0.0000    24.0000 </r>
       <r>    -4.1570     0.0000    24.0000 </r>
       <r>    -4.0843     0.0000    24.0000 </r>
       <r>    -4.0116     0.0000    24.0000 </r>
       <r>    -3.9389     0.0000    24.0000 </r>
       <r>    -3.8661     0.0000    24.0000 </r>
       <r>    -3.7934     0.0000    24.0000 </r>
       <r>    -3.7207     0.0000    24.0000 </r>
       <r>    -3.6480     0.0000    24.0000 </r>
       <r>    -3.5753     0.0000    24.0000 </r>
       <r>    -3.5026     0.0000    24.0000 </r>
       <r>    -3.4299     0.0000    24.0000 </r>
       <r>    -3.3571     0.0000    24.0000 </r>
       <r>    -3.2844     0.0000    24.0000 </r>
       <r>    -3.2117     0.0000    24.0000 </r>
       <r>    -3.1390     0.0000    24.0000 </r>
       <r>    -3.0663     0.0000    24.0000 </r>
       <r>    -2.9936     0.0000    24.0000 </r>
       <r>    -2.9208     0.0000    24.0000 </r>
       <r>    -2.8481     0.0000    24.0000 </r>
       <r>    -2.7754     0.2367    24.0172 </r>
       <r>    -2.7027     1.2288    24.1066 </r>
       <r>    -2.6300     0.8818    24.1709 </r>
       <r>    -2.5573     1.7116    24.2966 </r>
       <r>    -2.4845     2.1241    24.4541 </r>
       <r>    -2.4118     2.4138    24.6341 </r>
       <r>    -2.3391     3.2101    24.8690 </r>
       <r>    -2.2664     1.5118    24.9795 </r>
       <r>    -2.1937     1.8537    25.1151 </r>
       <r>    -2.1210     2.3958    25.2898 </r>
       <r>    -2.0483     3.3799    25.5412 </r>
       <r>    -1.9755     1.6770    25.6633 </r>
       <r>    -1.9028     2.2147    25.8268 </r>
       <r>    -1.8301     2.6389    26.0187 </r>
       <r>    -1.7574     2.6141    26.2094 </r>
       <r>    -1.6847     3.0944    26.4349 </r>
       <r>    -1.6120     2.4931    26.6186 </r>
       <r>    -1.5392     2.9470    26.8333 </r>
       <r>    -1.4665     3.7959    27.1094 </r>
       <r>    -1.3938     3.6353    27.3747 </r>
       <r>    -1.3211     1.7536    27.5066 </r>
       <r>    -1.2484     2.5120    27.6903 </r>
       <r>    -1.1757     0.8073    27.7500 </r>
       <r>    -1.1029     0.6374    27.7964 </r>
       <r>    -1.0302     1.5862    27.9117 </r>
       <r>    -0.9575     0.8824    27.9767 </r>
       <r>    -0.8848     0.8886    28.0417 </r>
       <r>    -0.8121     2.1693    28.1994 </r>
       <r>    -0.7394     2.0372    28.3487 </r>
       <r>    -0.6667     1.2656    28.4408 </r>
       <r>    -0.5939     1.9860    28.5855 </r>
       <r>    -0.5212     3.4579    28.8420 </r>
       <r>    -0.4485     2.1533    29.0002 </r>
       <r>    -0.3758     2.9141    29.2130 </r>
       <r>    -0.3031     4.2077    29.5208 </r>
       <r>    -0.2304     3.3804    29.7685 </r>
       <r>    -0.1576     4.2623    30.0786 </r>
       <r>    -0.0849     5.6209    30.4906 </r>
       <r>    -0.0122     3.9979    30.7854 </r>
       <r>     0.0605     3.9330    31.0727 </r>
       <r>     0.1332     4.9409    31.4332 </r>
       <r>     0.2059     5.4830    31.8355 </r>
       <r>     0.2787     4.8577    32.1911 </r>
       <r>     0.3514     4.4666    32.5177 </r>
       <r>     0.4241     6.5911    33.0021 </r>
       <r>     0.4968     7.9849    33.5872 </r>
       <r>     0.5695     6.5031    34.0682 </r>
       <r>     0.6422     7.0296    34.5828 </r>
       <r>     0.7149     9.3332    35.2655 </r>
       <r>     0.7877     8.4637    35.8821 </r>
       <r>     0.8604     2.0866    36.0388 </r>
       <r>     0.9331     0.1422    36.0495 </r>
       <r>     1.0058     0.4294    36.0807 </r>
       <r>     1.0785     0.7884    36.1381 </r>
       <r>     1.1512     1.2664    36.2303 </r>
       <r>     1.2240     0.8107    36.2900 </r>
       <r>     1.2967     2.6119    36.4799 </r>
       <r>     1.3694     2.6707    36.6767 </r>
       <r>     1.4421     2.0636    36.8280 </r>
       <r>     1.5148     2.4173    37.0081 </r>
       <r>     1.5875     3.3027    37.2486 </r>
       <r>     1.6602     3.5316    37.5069 </r>
       <r>     1.7330     4.0662    37.8037 </r>
       <r>     1.8057     3.1512    38.0340 </r>
       <r>     1.8784     3.3677    38.2789 </r>
       <r>     1.9511     2.0861    38.4346 </r>
       <r>     2.0238     2.0683    38.5856 </r>
       <r>     2.0965     2.1318    38.7406 </r>
       <r>     2.1693     2.6264    38.9330 </r>
       <r>     2.2420     2.6433    39.1279 </r>
       <r>     2.3147     3.6677    39.4005 </r>
       <r>     2.3874     3.2526    39.6384 </r>
       <r>     2.4601     1.0876    39.7187 </r>
       <r>     2.5328     1.0400    39.7944 </r>
       <r>     2.6056     0.7414    39.8483 </r>
       <r>     2.6783     0.7791    39.9049 </r>
       <r>     2.7510     0.7035    39.9563 </r>
       <r>     2.8237     0.1708    39.9688 </r>
       <r>     2.8964     0.1462    39.9794 </r>
       <r>     2.9691     0.2110    39.9947 </r>
       <r>     3.0418     0.0716    40.0000 </r>
       <r>     3.1146     0.0000    40.0000 </r>
       <r>     3.1873     0.0000    40.0000 </r>
       <r>     3.2600     0.0000    40.0000 </r>
       <r>     3.3327     0.0000    40.0000 </r>
       <r>     3.4054     0.0000    40.0000 </r>
       <r>     3.4781     0.0000    40.0000 </r>
       <r>     3.5509     0.0000    40.0000 </r>
       <r>     3.6236     0.0000    40.0000 </r>
       <r>     3.6963     0.0000    40.0000 </r>
       <r>     3.7690     0.0000    40.0000 </r>
       <r>     3.8417     0.0000    40.0000 </r>
       <r>     3.9144     0.0000    40.0000 </r>
       <r>     3.9872     0.0000    40.0000 </r>
       <r>     4.0599     0.0054    40.0004 </r>
       <r>     4.1326     0.0662    40.0052 </r>
       <r>     4.2053     0.0000    40.0052 </r>
       <r>     4.2780     0.1528    40.0163 </r>
       <r>     4.3507     0.0621    40.0208 </r>
       <r>     4.4234     0.2958    40.0423 </r>
       <r>     4.4962     0.4667    40.0774 </r>
       <r>     4.5689     0.4231    40.1082 </r>
       <r>     4.6416     0.5196    40.1460 </r>
       <r>     4.7143     1.2126    40.2342 </r>
       <r>     4.7870     0.9450    40.3036 </r>
       <r>     4.8597     1.0520    40.3813 </r>
       <r>     4.9325     1.2884    40.4751 </r>
       <r>     5.0052     2.8324    40.6823 </r>
       <r>     5.0779     1.2305    40.7740 </r>
       <r>     5.1506     1.0064    40.8471 </r>
       <r>     5.2233     3.0011    41.0658 </r>
       <r>     5.2960     2.4865    41.2477 </r>
       <r>     5.3687     3.2380    41.4854 </r>
       <r>     5.4415     3.6850    41.7541 </r>
       <r>     5.5142     3.1183    41.9810 </r>
       <r>     5.5869     4.2651    42.2954 </r>
       <r>     5.6596     2.1239    42.4526 </r>
       <r>     5.7323     2.5261    42.6383 </r>
       <r>     5.8050     2.5817    42.8301 </r>
       <r>     5.8778     3.4822    43.0852 </r>
       <r>     5.9505     4.0351    43.3788 </r>
       <r>     6.0232     2.7158    43.5786 </r>
       <r>     6.0959     3.4583    43.8330 </r>
       <r>     6.1686     2.6820    44.0288 </r>
       <r>     6.2413     2.1071    44.1825 </r>
       <r>     6.3141     3.6901    44.4540 </r>
       <r>     6.3868     1.7847    44.5887 </r>
       <r>     6.4595     2.5327    44.7730 </r>
       <r>     6.5322     3.1666    45.0065 </r>
       <r>     6.6049     1.9296    45.1505 </r>
       <r>     6.6776     2.7895    45.3534 </r>
       <r>     6.7503     4.7790    45.7011 </r>
       <r>     6.8231     2.7160    45.9004 </r>
       <r>     6.8958     3.4020    46.1517 </r>
       <r>     6.9685     4.0411    46.4484 </r>
       <r>     7.0412     4.8697    46.8025 </r>
       <r>     7.1139     2.9389    47.0223 </r>
       <r>     7.1866     2.5936    47.2113 </r>
       <r>     7.2594     2.6718    47.4076 </r>
       <r>     7.3321     1.5536    47.5206 </r>
       <r>     7.4048     1.5616    47.6342 </r>
       <r>     7.4775     1.0131    47.7079 </r>
       <r>     7.5502     0.7561    47.7635 </r>
       <r>     7.6229     1.3768    47.8637 </r>
       <r>     7.6957     0.6983    47.9170 </r>
       <r>     7.7684     0.6166    47.9625 </r>
       <r>     7.8411     0.0921    47.9695 </r>
       <r>     7.9138     0.2706    47.9892 </r>
       <r>     7.9865     0.0575    47.9938 </r>
       <r>     8.0592     0.0858    48.0000 </r>
       <r>     8.1319     0.0000    48.0000 </r>
       <r>     8.2047     0.0000    48.0000 </r>
       <r>     8.2774     0.0000    48.0000 </r>
       <r>     8.3501     0.0000    48.0000 </r>
       <r>     8.4228     0.0000    48.0000 </r>
       <r>     8.4955     0.0000    48.0000 </r>
       <r>     8.5682     0.0000    48.0000 </r>
       <r>     8.6410     0.0000    48.0000 </r>
       <r>     8.7137     0.0000    48.0000 </r>
       <r>     8.7864     0.0000    48.0000 </r>
       <r>     8.8591     0.0000    48.0000 </r>
       <r>     8.9318     0.0000    48.0000 </r>
       <r>     9.0045     0.0000    48.0000 </r>
      </set>
     </set>
    </array>
   </total>
  </dos>
 </calculation>
 <structure name="finalpos" >
  <crystal>
   <varray name="basis" >
    <v>       2.29437496       6.15962664       0.00000000 </v>
    <v>      -2.29437496       6.15962664       0.00000000 </v>
    <v>       0.00000000       0.00000000       4.60241853 </v>
   </varray>
   <i name="volume">    130.08729634 </i>
   <varray name="rec_basis" >
    <v>       0.21792428       0.08117375       0.00000000 </v>
    <v>      -0.21792428       0.08117375       0.00000000 </v>
    <v>       0.00000000       0.00000000       0.21727707 </v>
   </varray>
  </crystal>
  <varray name="positions" >
   <v>       0.39344638       0.39344630       0.25000002 </v>
   <v>       0.60655378       0.60655378       0.75000006 </v>
   <v>       0.15127386       0.15127378       0.25000002 </v>
   <v>       0.84872630       0.84872630       0.75000006 </v>
  </varray>
 </structure>
</modeling>
