
     Program PWSCF v.7.1 starts on  3Jan2024 at 14:38:49 

     This program is part of the open-source Quantum ESPRESSO suite
     for quantum simulation of materials; please cite
         "P. Giannozzi et al., J. Phys.:Condens. Matter 21 395502 (2009);
         "P. Giannozzi et al., J. Phys.:Condens. Matter 29 465901 (2017);
         "P. Giannozzi et al., J. Chem. Phys. 152 154105 (2020);
          URL http://www.quantum-espresso.org", 
     in publications or presentations arising from this work. More details at
     http://www.quantum-espresso.org/quote

     Parallel version (MPI), running on     8 processors

     MPI processes distributed on     1 nodes
     122313 MiB available memory on the printing compute node when the environment starts
 
     Reading input from pw_mp-22916_emass_k3000_E130.in
Warning: card &IONS ignored
Warning: card / ignored
Warning: card &CELL ignored
Warning: card / ignored

     Current dimensions of program PWSCF are:
     Max number of different atomic species (ntypx) = 10
     Max number of k-points (npk) =  40000
     Max angular momentum in pseudopotentials (lmaxx) =  4

     Atomic positions and unit cell read from directory:
     out/mp-22916.save/
     Atomic positions from file used, from input discarded
 
 
     R & G space division:  proc/nbgrp/npool/nimage =       8
     Subspace diagonalization in iterative solution of the eigenvalue problem:
     a serial algorithm will be used

 
     Parallelization info
     --------------------
     sticks:   dense  smooth     PW     G-vecs:    dense   smooth      PW
     Min         279     279     69                 8755     8755    1097
     Max         280     280     70                 8759     8759    1101
     Sum        2233    2233    559                70049    70049    8801
 
     Using Slab Decomposition
 


     bravais-lattice index     =            2
     lattice parameter (alat)  =      11.1930  a.u.
     unit-cell volume          =     350.5745 (a.u.)^3
     number of atoms/cell      =            2
     number of atomic types    =            2
     number of electrons       =        16.00
     number of Kohn-Sham states=           16
     kinetic-energy cutoff     =     130.0000  Ry
     charge density cutoff     =     520.0000  Ry
     Exchange-correlation= PBE
                           (   1   4   3   4   0   0   0)

     celldm(1)=  11.193007  celldm(2)=   0.000000  celldm(3)=   0.000000
     celldm(4)=   0.000000  celldm(5)=   0.000000  celldm(6)=   0.000000

     crystal axes: (cart. coord. in units of alat)
               a(1) = (  -0.500000   0.000000   0.500000 )  
               a(2) = (   0.000000   0.500000   0.500000 )  
               a(3) = (  -0.500000   0.500000   0.000000 )  

     reciprocal axes: (cart. coord. in units 2 pi/alat)
               b(1) = ( -1.000000 -1.000000  1.000000 )  
               b(2) = (  1.000000  1.000000  1.000000 )  
               b(3) = ( -1.000000  1.000000 -1.000000 )  


     PseudoPot. # 1 for Br read from file:
     /usr/scratch4/magr4985/MG/devEb/pseudo/SG15/Br.upf
     MD5 check sum: d26c51d81abb03042b648ee3fecf55db
     Pseudo is Norm-conserving, Zval =  7.0
     Generated using ONCVPSP code by D. R. Hamann
     Using radial grid of  602 points,  6 beta functions with: 
                l(1) =   0
                l(2) =   0
                l(3) =   1
                l(4) =   1
                l(5) =   2
                l(6) =   2

     PseudoPot. # 2 for Na read from file:
     /usr/scratch4/magr4985/MG/devEb/pseudo/SG15/Na.upf
     MD5 check sum: b5675fcfec0094e74c3198b687cdd8c0
     Pseudo is Norm-conserving, Zval =  9.0
     Generated using ONCVPSP code by D. R. Hamann
     Using radial grid of  602 points,  4 beta functions with: 
                l(1) =   0
                l(2) =   0
                l(3) =   1
                l(4) =   1

     atomic species   valence    mass     pseudopotential
        Br             7.00    79.90400     Br( 1.00)
        Na             9.00    22.98980     Na( 1.00)

     48 Sym. Ops., with inversion, found



   Cartesian axes

     site n.     atom                  positions (alat units)
         1           Na  tau(   1) = (   0.0000000   0.0000000   0.0000000  )
         2           Br  tau(   2) = (  -0.5000000   0.5000000   0.5000000  )

     number of k points=     7  Gaussian smearing, width (Ry)=  0.0005
                       cart. coord. in units 2pi/alat
        k(    1) = (   0.0000000   0.0000000   0.0000000), wk =   0.2857143
        k(    2) = (   0.0100000   0.0000000   0.0000000), wk =   0.2857143
        k(    3) = (  -0.0100000   0.0000000   0.0000000), wk =   0.2857143
        k(    4) = (   0.0000000   0.0100000   0.0000000), wk =   0.2857143
        k(    5) = (   0.0000000  -0.0100000   0.0000000), wk =   0.2857143
        k(    6) = (   0.0000000   0.0000000   0.0100000), wk =   0.2857143
        k(    7) = (   0.0000000   0.0000000  -0.0100000), wk =   0.2857143

     Dense  grid:    70049 G-vectors     FFT dimensions: (  60,  60,  60)

     Estimated max dynamical RAM per process >      10.17 MB

     Estimated total dynamical RAM >      81.37 MB

     The potential is recalculated from file :
     out/mp-22916.save/charge-density

     Starting wfcs are random

     Band Structure Calculation
     ParO style diagonalization

     ethr =  5.00E-06,  avg # of iterations = 24.7

     total cpu time spent up to now is        2.2 secs

     End of band structure calculation

          k = 0.0000 0.0000 0.0000 (  8801 PWs)   bands (ev):

   -47.8988 -19.8252 -19.8252 -19.8252 -11.1118   1.7466   1.7466   1.7466
     5.9528  11.6220  11.6220  11.6220  13.8207  13.8207  14.7633  16.5841

          k = 0.0100 0.0000 0.0000 (  8801 PWs)   bands (ev):

   -47.8988 -19.8252 -19.8252 -19.8252 -11.1117   1.7457   1.7464   1.7464
     5.9542  11.6202  11.6227  11.6227  13.8178  13.8211  14.7660  16.5847

          k =-0.0100 0.0000 0.0000 (  8801 PWs)   bands (ev):

   -47.8988 -19.8252 -19.8252 -19.8252 -11.1117   1.7457   1.7464   1.7464
     5.9542  11.6202  11.6227  11.6227  13.8178  13.8211  14.7660  16.5847

          k = 0.0000 0.0100 0.0000 (  8801 PWs)   bands (ev):

   -47.8988 -19.8252 -19.8252 -19.8252 -11.1117   1.7457   1.7464   1.7464
     5.9542  11.6202  11.6227  11.6227  13.8178  13.8211  14.7660  16.5867

          k = 0.0000-0.0100 0.0000 (  8801 PWs)   bands (ev):

   -47.8988 -19.8252 -19.8252 -19.8252 -11.1117   1.7457   1.7464   1.7464
     5.9542  11.6202  11.6227  11.6227  13.8178  13.8211  14.7660  16.5847

          k = 0.0000 0.0000 0.0100 (  8801 PWs)   bands (ev):

   -47.8988 -19.8252 -19.8252 -19.8252 -11.1117   1.7457   1.7464   1.7464
     5.9542  11.6202  11.6227  11.6227  13.8178  13.8211  14.7660  16.5858

          k = 0.0000 0.0000-0.0100 (  8801 PWs)   bands (ev):

   -47.8988 -19.8252 -19.8252 -19.8252 -11.1117   1.7457   1.7464   1.7464
     5.9542  11.6202  11.6227  11.6227  13.8178  13.8211  14.7660  16.5847

     the Fermi energy is     4.5347 ev
     (compare with:     4.5347 eV, computed in scf)

     Writing all to output data dir out/mp-22916.save/
 
     init_run     :      0.14s CPU      0.16s WALL (       1 calls)
     electrons    :      1.87s CPU      1.92s WALL (       1 calls)

     Called by init_run:
     wfcinit      :      0.00s CPU      0.00s WALL (       1 calls)
     potinit      :      0.02s CPU      0.03s WALL (       1 calls)
     hinit0       :      0.03s CPU      0.04s WALL (       1 calls)

     Called by electrons:
     c_bands      :      1.87s CPU      1.92s WALL (       1 calls)
     v_of_rho     :      0.02s CPU      0.02s WALL (       1 calls)

     Called by c_bands:
     init_us_2    :      0.00s CPU      0.00s WALL (       7 calls)
     init_us_2:cp :      0.00s CPU      0.00s WALL (       7 calls)
     paro_k       :      1.78s CPU      1.83s WALL (       7 calls)

     Called by paro_*:
     h_psi        :      1.53s CPU      1.57s WALL (     446 calls)
     g_psi        :      0.02s CPU      0.03s WALL (    3146 calls)

     Called by h_psi:
     h_psi:calbec :      0.05s CPU      0.06s WALL (     446 calls)
     vloc_psi     :      1.44s CPU      1.47s WALL (     446 calls)
     add_vuspsi   :      0.03s CPU      0.04s WALL (     446 calls)

     General routines
     calbec       :      0.05s CPU      0.05s WALL (     446 calls)
     fft          :      0.01s CPU      0.02s WALL (      10 calls)
     fftw         :      1.26s CPU      1.29s WALL (    5454 calls)
 
     Parallel routines
 
     PWSCF        :      2.13s CPU      2.23s WALL

 
   This run was terminated on:  14:38:51   3Jan2024            

=------------------------------------------------------------------------------=
   JOB DONE.
=------------------------------------------------------------------------------=
