<?xml version="1.0" encoding="ISO-8859-1"?>
<modeling>
 <generator>
  <i name="program" type="string">vasp </i>
  <i name="version" type="string">5.4.4.18Apr17-6-g9f103f2a35  </i>
  <i name="subversion" type="string">(build Aug 24 2017 11:22:49) complex            parallel </i>
  <i name="platform" type="string">LinuxIFC </i>
  <i name="date" type="string">2023 12 25 </i>
  <i name="time" type="string">13:07:46 </i>
 </generator>
 <incar>
  <i type="string" name="PREC">accurate</i>
  <i type="string" name="ALGO"> Normal</i>
  <i type="int" name="NELM">   100</i>
  <i type="int" name="IBRION">     8</i>
  <i name="EDIFF">      0.00000001</i>
  <i name="SYMPREC">      0.00000001</i>
  <i name="ENCUT">    520.00000000</i>
  <i type="logical" name="LREAL"> F  </i>
  <i type="int" name="ISMEAR">     0</i>
  <i name="SIGMA">      0.01000000</i>
  <i type="logical" name="LWAVE"> F  </i>
  <v type="int" name="KPOINT_BSE">    -1     0     0     0</v>
  <i type="int" name="NELM">   100</i>
  <i type="logical" name="LPEAD"> T  </i>
  <i type="logical" name="LEPSILON"> T  </i>
 </incar>
 <structure name="primitive_cell" >
  <crystal>
   <varray name="basis" >
    <v>      -3.14187106       0.00000000       3.14187106 </v>
    <v>       0.00000000       3.14187106       3.14187106 </v>
    <v>      -3.14187106       3.14187106       0.00000000 </v>
   </varray>
   <i name="volume">     62.02904131 </i>
   <varray name="rec_basis" >
    <v>      -0.15914084      -0.15914084       0.15914084 </v>
    <v>       0.15914084       0.15914084       0.15914084 </v>
    <v>      -0.15914084       0.15914084      -0.15914084 </v>
   </varray>
  </crystal>
  <varray name="positions" >
   <v>       0.00000000       0.00000000       0.00000000 </v>
   <v>       0.49999996      -0.49999996       0.49999996 </v>
  </varray>
 </structure>
 <varray name="primitive_index" >
  <v type="int" >        1 </v>
  <v type="int" >        2 </v>
 </varray>
 <kpoints>
  <generation param="Gamma">
   <v type="int" name="divisions">      12       12       12 </v>
   <v name="usershift">      0.00000000       0.00000000       0.00000000 </v>
   <v name="genvec1">      0.08333333       0.00000000       0.00000000 </v>
   <v name="genvec2">      0.00000000       0.08333333      -0.00000000 </v>
   <v name="genvec3">     -0.00000000      -0.00000000       0.08333333 </v>
   <v name="shift">      0.00000000       0.00000000       0.00000000 </v>
  </generation>
  <varray name="kpointlist" >
   <v>       0.00000000       0.00000000       0.00000000 </v>
   <v>       0.08333333      -0.00000000      -0.00000000 </v>
   <v>       0.16666667      -0.00000000      -0.00000000 </v>
   <v>       0.25000000       0.00000000       0.00000000 </v>
   <v>       0.33333333      -0.00000000       0.00000000 </v>
   <v>       0.41666667       0.00000000       0.00000000 </v>
   <v>       0.50000000       0.00000000       0.00000000 </v>
   <v>       0.08333333       0.08333333      -0.00000000 </v>
   <v>       0.16666667       0.08333333       0.00000000 </v>
   <v>       0.25000000       0.08333333      -0.00000000 </v>
   <v>       0.33333333       0.08333333       0.00000000 </v>
   <v>       0.41666667       0.08333333      -0.00000000 </v>
   <v>       0.50000000       0.08333333      -0.00000000 </v>
   <v>      -0.41666667       0.08333333      -0.00000000 </v>
   <v>      -0.33333333       0.08333333       0.00000000 </v>
   <v>      -0.25000000       0.08333333      -0.00000000 </v>
   <v>      -0.16666667       0.08333333      -0.00000000 </v>
   <v>      -0.08333333       0.08333333       0.00000000 </v>
   <v>       0.16666667       0.16666667      -0.00000000 </v>
   <v>       0.25000000       0.16666667      -0.00000000 </v>
   <v>       0.33333333       0.16666667      -0.00000000 </v>
   <v>       0.41666667       0.16666667       0.00000000 </v>
   <v>       0.50000000       0.16666667       0.00000000 </v>
   <v>      -0.41666667       0.16666667      -0.00000000 </v>
   <v>      -0.33333333       0.16666667      -0.00000000 </v>
   <v>      -0.25000000       0.16666667       0.00000000 </v>
   <v>      -0.16666667       0.16666667       0.00000000 </v>
   <v>       0.25000000       0.25000000      -0.00000000 </v>
   <v>       0.33333333       0.25000000      -0.00000000 </v>
   <v>       0.41666667       0.25000000      -0.00000000 </v>
   <v>       0.50000000       0.25000000      -0.00000000 </v>
   <v>      -0.41666667       0.25000000      -0.00000000 </v>
   <v>      -0.33333333       0.25000000      -0.00000000 </v>
   <v>      -0.25000000       0.25000000      -0.00000000 </v>
   <v>       0.33333333       0.33333333      -0.00000000 </v>
   <v>       0.41666667       0.33333333      -0.00000000 </v>
   <v>       0.50000000       0.33333333      -0.00000000 </v>
   <v>      -0.41666667       0.33333333      -0.00000000 </v>
   <v>      -0.33333333       0.33333333      -0.00000000 </v>
   <v>       0.41666667       0.41666667      -0.00000000 </v>
   <v>       0.50000000       0.41666667      -0.00000000 </v>
   <v>      -0.41666667       0.41666667       0.00000000 </v>
   <v>       0.50000000       0.50000000      -0.00000000 </v>
   <v>       0.08333333      -0.00000000       0.08333333 </v>
   <v>       0.16666667       0.00000000       0.08333333 </v>
   <v>       0.25000000      -0.00000000       0.08333333 </v>
   <v>       0.33333333      -0.00000000       0.08333333 </v>
   <v>       0.41666667      -0.00000000       0.08333333 </v>
   <v>       0.50000000      -0.00000000       0.08333333 </v>
   <v>      -0.41666667       0.00000000       0.08333333 </v>
   <v>      -0.33333333       0.00000000       0.08333333 </v>
   <v>      -0.25000000      -0.00000000       0.08333333 </v>
   <v>      -0.16666667      -0.00000000       0.08333333 </v>
   <v>      -0.08333333      -0.00000000       0.08333333 </v>
   <v>       0.25000000       0.16666667       0.08333333 </v>
   <v>       0.33333333       0.16666667       0.08333333 </v>
   <v>       0.41666667       0.16666667       0.08333333 </v>
   <v>       0.50000000       0.16666667       0.08333333 </v>
   <v>      -0.41666667       0.16666667       0.08333333 </v>
   <v>       0.16666667       0.25000000       0.08333333 </v>
   <v>       0.33333333       0.25000000       0.08333333 </v>
   <v>       0.41666667       0.25000000       0.08333333 </v>
   <v>       0.50000000       0.25000000       0.08333333 </v>
   <v>      -0.41666667       0.25000000       0.08333333 </v>
   <v>      -0.33333333       0.25000000       0.08333333 </v>
   <v>      -0.25000000       0.25000000       0.08333333 </v>
   <v>      -0.16666667       0.25000000       0.08333333 </v>
   <v>       0.16666667       0.33333333       0.08333333 </v>
   <v>       0.25000000       0.33333333       0.08333333 </v>
   <v>       0.41666667       0.33333333       0.08333333 </v>
   <v>       0.50000000       0.33333333       0.08333333 </v>
   <v>      -0.41666667       0.33333333       0.08333333 </v>
   <v>      -0.33333333       0.33333333       0.08333333 </v>
   <v>      -0.25000000       0.33333333       0.08333333 </v>
   <v>       0.16666667       0.41666667       0.08333333 </v>
   <v>       0.25000000       0.41666667       0.08333333 </v>
   <v>       0.33333333       0.41666667       0.08333333 </v>
   <v>       0.50000000       0.41666667       0.08333333 </v>
   <v>      -0.41666667       0.41666667       0.08333333 </v>
   <v>      -0.33333333       0.41666667       0.08333333 </v>
   <v>       0.16666667       0.50000000       0.08333333 </v>
   <v>       0.25000000       0.50000000       0.08333333 </v>
   <v>       0.33333333       0.50000000       0.08333333 </v>
   <v>       0.41666667       0.50000000       0.08333333 </v>
   <v>      -0.41666667       0.50000000       0.08333333 </v>
   <v>       0.16666667      -0.41666667       0.08333333 </v>
   <v>       0.25000000      -0.41666667       0.08333333 </v>
   <v>       0.33333333      -0.41666667       0.08333333 </v>
   <v>       0.41666667      -0.41666667       0.08333333 </v>
   <v>       0.50000000      -0.41666667       0.08333333 </v>
   <v>       0.16666667      -0.33333333       0.08333333 </v>
   <v>       0.25000000      -0.33333333       0.08333333 </v>
   <v>       0.33333333      -0.33333333       0.08333333 </v>
   <v>       0.41666667      -0.33333333       0.08333333 </v>
   <v>       0.16666667      -0.25000000       0.08333333 </v>
   <v>       0.25000000      -0.25000000       0.08333333 </v>
   <v>       0.33333333      -0.25000000       0.08333333 </v>
   <v>       0.16666667      -0.16666667       0.08333333 </v>
   <v>       0.25000000      -0.16666667       0.08333333 </v>
   <v>       0.16666667      -0.08333333       0.08333333 </v>
   <v>       0.16666667      -0.00000000       0.16666667 </v>
   <v>       0.25000000       0.00000000       0.16666667 </v>
   <v>       0.33333333      -0.00000000       0.16666667 </v>
   <v>       0.41666667       0.00000000       0.16666667 </v>
   <v>       0.50000000       0.00000000       0.16666667 </v>
   <v>      -0.41666667      -0.00000000       0.16666667 </v>
   <v>      -0.33333333      -0.00000000       0.16666667 </v>
   <v>      -0.25000000       0.00000000       0.16666667 </v>
   <v>      -0.16666667       0.00000000       0.16666667 </v>
   <v>       0.50000000       0.33333333       0.16666667 </v>
   <v>      -0.41666667       0.33333333       0.16666667 </v>
   <v>      -0.33333333       0.33333333       0.16666667 </v>
   <v>       0.25000000       0.41666667       0.16666667 </v>
   <v>      -0.41666667       0.41666667       0.16666667 </v>
   <v>      -0.33333333       0.41666667       0.16666667 </v>
   <v>      -0.25000000       0.41666667       0.16666667 </v>
   <v>       0.25000000       0.50000000       0.16666667 </v>
   <v>       0.33333333       0.50000000       0.16666667 </v>
   <v>      -0.33333333       0.50000000       0.16666667 </v>
   <v>       0.25000000      -0.41666667       0.16666667 </v>
   <v>       0.33333333      -0.41666667       0.16666667 </v>
   <v>       0.41666667      -0.41666667       0.16666667 </v>
   <v>       0.25000000      -0.33333333       0.16666667 </v>
   <v>       0.33333333      -0.33333333       0.16666667 </v>
   <v>       0.41666667      -0.33333333       0.16666667 </v>
   <v>       0.50000000      -0.33333333       0.16666667 </v>
   <v>       0.25000000      -0.25000000       0.16666667 </v>
   <v>       0.33333333      -0.25000000       0.16666667 </v>
   <v>       0.41666667      -0.25000000       0.16666667 </v>
   <v>       0.25000000      -0.16666667       0.16666667 </v>
   <v>       0.33333333      -0.16666667       0.16666667 </v>
   <v>       0.25000000      -0.08333333       0.16666667 </v>
   <v>       0.25000000      -0.00000000       0.25000000 </v>
   <v>       0.33333333      -0.00000000       0.25000000 </v>
   <v>       0.41666667      -0.00000000       0.25000000 </v>
   <v>       0.50000000      -0.00000000       0.25000000 </v>
   <v>      -0.41666667       0.00000000       0.25000000 </v>
   <v>      -0.33333333      -0.00000000       0.25000000 </v>
   <v>      -0.25000000      -0.00000000       0.25000000 </v>
   <v>      -0.25000000       0.50000000       0.25000000 </v>
   <v>       0.33333333      -0.41666667       0.25000000 </v>
   <v>       0.33333333      -0.33333333       0.25000000 </v>
   <v>       0.41666667      -0.33333333       0.25000000 </v>
   <v>       0.33333333      -0.25000000       0.25000000 </v>
   <v>       0.41666667      -0.25000000       0.25000000 </v>
   <v>       0.50000000      -0.25000000       0.25000000 </v>
   <v>       0.33333333      -0.16666667       0.25000000 </v>
   <v>       0.41666667      -0.16666667       0.25000000 </v>
   <v>       0.33333333      -0.08333333       0.25000000 </v>
   <v>       0.33333333      -0.00000000       0.33333333 </v>
   <v>       0.41666667      -0.00000000       0.33333333 </v>
   <v>       0.50000000       0.00000000       0.33333333 </v>
   <v>      -0.41666667       0.00000000       0.33333333 </v>
   <v>      -0.33333333       0.00000000       0.33333333 </v>
   <v>       0.41666667      -0.25000000       0.33333333 </v>
   <v>       0.41666667      -0.16666667       0.33333333 </v>
   <v>       0.50000000      -0.16666667       0.33333333 </v>
   <v>       0.41666667      -0.08333333       0.33333333 </v>
   <v>       0.41666667      -0.00000000       0.41666667 </v>
   <v>       0.50000000      -0.00000000       0.41666667 </v>
   <v>      -0.41666667      -0.00000000       0.41666667 </v>
   <v>       0.50000000      -0.08333333       0.41666667 </v>
   <v>       0.50000000      -0.00000000       0.50000000 </v>
  </varray>
  <varray name="weights" >
   <v>       0.00057870 </v>
   <v>       0.00462963 </v>
   <v>       0.00462963 </v>
   <v>       0.00462963 </v>
   <v>       0.00462963 </v>
   <v>       0.00462963 </v>
   <v>       0.00231481 </v>
   <v>       0.00231481 </v>
   <v>       0.00925926 </v>
   <v>       0.00925926 </v>
   <v>       0.00925926 </v>
   <v>       0.00925926 </v>
   <v>       0.00925926 </v>
   <v>       0.00925926 </v>
   <v>       0.00925926 </v>
   <v>       0.00925926 </v>
   <v>       0.00925926 </v>
   <v>       0.00462963 </v>
   <v>       0.00231481 </v>
   <v>       0.00925926 </v>
   <v>       0.00925926 </v>
   <v>       0.00925926 </v>
   <v>       0.00925926 </v>
   <v>       0.00925926 </v>
   <v>       0.00925926 </v>
   <v>       0.00925926 </v>
   <v>       0.00462963 </v>
   <v>       0.00231481 </v>
   <v>       0.00925926 </v>
   <v>       0.00925926 </v>
   <v>       0.00925926 </v>
   <v>       0.00925926 </v>
   <v>       0.00925926 </v>
   <v>       0.00462963 </v>
   <v>       0.00231481 </v>
   <v>       0.00925926 </v>
   <v>       0.00925926 </v>
   <v>       0.00925926 </v>
   <v>       0.00462963 </v>
   <v>       0.00231481 </v>
   <v>       0.00925926 </v>
   <v>       0.00462963 </v>
   <v>       0.00115741 </v>
   <v>       0.00115741 </v>
   <v>       0.00462963 </v>
   <v>       0.00462963 </v>
   <v>       0.00462963 </v>
   <v>       0.00462963 </v>
   <v>       0.00462963 </v>
   <v>       0.00462963 </v>
   <v>       0.00462963 </v>
   <v>       0.00462963 </v>
   <v>       0.00462963 </v>
   <v>       0.00231481 </v>
   <v>       0.00462963 </v>
   <v>       0.00925926 </v>
   <v>       0.00925926 </v>
   <v>       0.00925926 </v>
   <v>       0.00462963 </v>
   <v>       0.00462963 </v>
   <v>       0.00462963 </v>
   <v>       0.00925926 </v>
   <v>       0.00925926 </v>
   <v>       0.00925926 </v>
   <v>       0.00925926 </v>
   <v>       0.00925926 </v>
   <v>       0.00462963 </v>
   <v>       0.00925926 </v>
   <v>       0.00462963 </v>
   <v>       0.00462963 </v>
   <v>       0.00925926 </v>
   <v>       0.00925926 </v>
   <v>       0.00925926 </v>
   <v>       0.00462963 </v>
   <v>       0.00925926 </v>
   <v>       0.00925926 </v>
   <v>       0.00462963 </v>
   <v>       0.00462963 </v>
   <v>       0.00925926 </v>
   <v>       0.00462963 </v>
   <v>       0.00925926 </v>
   <v>       0.00925926 </v>
   <v>       0.00925926 </v>
   <v>       0.00462963 </v>
   <v>       0.00231481 </v>
   <v>       0.00925926 </v>
   <v>       0.00925926 </v>
   <v>       0.00925926 </v>
   <v>       0.00925926 </v>
   <v>       0.00231481 </v>
   <v>       0.00925926 </v>
   <v>       0.00925926 </v>
   <v>       0.00925926 </v>
   <v>       0.00462963 </v>
   <v>       0.00925926 </v>
   <v>       0.00925926 </v>
   <v>       0.00462963 </v>
   <v>       0.00925926 </v>
   <v>       0.00462963 </v>
   <v>       0.00462963 </v>
   <v>       0.00115741 </v>
   <v>       0.00462963 </v>
   <v>       0.00462963 </v>
   <v>       0.00462963 </v>
   <v>       0.00462963 </v>
   <v>       0.00462963 </v>
   <v>       0.00462963 </v>
   <v>       0.00462963 </v>
   <v>       0.00231481 </v>
   <v>       0.00462963 </v>
   <v>       0.00925926 </v>
   <v>       0.00462963 </v>
   <v>       0.00462963 </v>
   <v>       0.00462963 </v>
   <v>       0.00925926 </v>
   <v>       0.00462963 </v>
   <v>       0.00925926 </v>
   <v>       0.00462963 </v>
   <v>       0.00231481 </v>
   <v>       0.00925926 </v>
   <v>       0.00925926 </v>
   <v>       0.00462963 </v>
   <v>       0.00925926 </v>
   <v>       0.00925926 </v>
   <v>       0.00925926 </v>
   <v>       0.00231481 </v>
   <v>       0.00925926 </v>
   <v>       0.00925926 </v>
   <v>       0.00462963 </v>
   <v>       0.00925926 </v>
   <v>       0.00462963 </v>
   <v>       0.00462963 </v>
   <v>       0.00115741 </v>
   <v>       0.00462963 </v>
   <v>       0.00462963 </v>
   <v>       0.00462963 </v>
   <v>       0.00462963 </v>
   <v>       0.00462963 </v>
   <v>       0.00231481 </v>
   <v>       0.00115741 </v>
   <v>       0.00462963 </v>
   <v>       0.00925926 </v>
   <v>       0.00462963 </v>
   <v>       0.00925926 </v>
   <v>       0.00925926 </v>
   <v>       0.00231481 </v>
   <v>       0.00925926 </v>
   <v>       0.00462963 </v>
   <v>       0.00462963 </v>
   <v>       0.00115741 </v>
   <v>       0.00462963 </v>
   <v>       0.00462963 </v>
   <v>       0.00462963 </v>
   <v>       0.00231481 </v>
   <v>       0.00462963 </v>
   <v>       0.00925926 </v>
   <v>       0.00231481 </v>
   <v>       0.00462963 </v>
   <v>       0.00115741 </v>
   <v>       0.00462963 </v>
   <v>       0.00231481 </v>
   <v>       0.00231481 </v>
   <v>       0.00057870 </v>
  </varray>
 </kpoints>
 <parameters>
  <separator name="general" >
   <i type="string" name="SYSTEM">unknown system</i>
   <i type="logical" name="LCOMPAT"> F  </i>
  </separator>
  <separator name="electronic" >
   <i type="string" name="PREC">accura</i>
   <i name="ENMAX">    520.00000000</i>
   <i name="ENAUG">    427.85300000</i>
   <i name="EDIFF">      0.00000001</i>
   <i type="int" name="IALGO">    38</i>
   <i type="int" name="IWAVPR">    11</i>
   <i type="int" name="NBANDS">    16</i>
   <i name="NELECT">     16.00000000</i>
   <i type="int" name="TURBO">     0</i>
   <i type="int" name="IRESTART">     0</i>
   <i type="int" name="NREBOOT">     0</i>
   <i type="int" name="NMIN">     0</i>
   <i name="EREF">      0.00000000</i>
   <separator name="electronic smearing" >
    <i type="int" name="ISMEAR">     0</i>
    <i name="SIGMA">      0.01000000</i>
    <i name="KSPACING">      0.50000000</i>
    <i type="logical" name="KGAMMA"> T  </i>
   </separator>
   <separator name="electronic projectors" >
    <i type="logical" name="LREAL"> F  </i>
    <v name="ROPT">      0.00000000      0.00000000</v>
    <i type="int" name="LMAXPAW">  -100</i>
    <i type="int" name="LMAXMIX">     2</i>
    <i type="logical" name="NLSPLINE"> F  </i>
   </separator>
   <separator name="electronic startup" >
    <i type="int" name="ISTART">     0</i>
    <i type="int" name="ICHARG">     2</i>
    <i type="int" name="INIWAV">     1</i>
   </separator>
   <separator name="electronic spin" >
    <i type="int" name="ISPIN">     1</i>
    <i type="logical" name="LNONCOLLINEAR"> F  </i>
    <v name="MAGMOM">      1.00000000      1.00000000</v>
    <i name="NUPDOWN">     -1.00000000</i>
    <i type="logical" name="LSORBIT"> F  </i>
    <v name="SAXIS">      0.00000000      0.00000000      1.00000000</v>
    <i type="logical" name="LSPIRAL"> F  </i>
    <v name="QSPIRAL">      0.00000000      0.00000000      0.00000000</v>
    <i type="logical" name="LZEROZ"> F  </i>
   </separator>
   <separator name="electronic exchange-correlation" >
    <i type="logical" name="LASPH"> F  </i>
    <i type="logical" name="LMETAGGA"> F  </i>
   </separator>
   <separator name="electronic convergence" >
    <i type="int" name="NELM">   100</i>
    <i type="int" name="NELMDL">    -5</i>
    <i type="int" name="NELMIN">     2</i>
    <i name="ENINI">    520.00000000</i>
    <separator name="electronic convergence detail" >
     <i type="logical" name="LDIAG"> T  </i>
     <i type="logical" name="LSUBROT"> F  </i>
     <i name="WEIMIN">      0.00100000</i>
     <i name="EBREAK">      0.00000000</i>
     <i name="DEPER">      0.30000000</i>
     <i type="int" name="NRMM">     4</i>
     <i name="TIME">      0.40000000</i>
    </separator>
   </separator>
   <separator name="electronic mixer" >
    <i name="AMIX">      0.40000000</i>
    <i name="BMIX">      1.00000000</i>
    <i name="AMIN">      0.10000000</i>
    <i name="AMIX_MAG">      1.60000000</i>
    <i name="BMIX_MAG">      1.00000000</i>
    <separator name="electronic mixer details" >
     <i type="int" name="IMIX">     4</i>
     <i type="logical" name="MIXFIRST"> F  </i>
     <i type="int" name="MAXMIX">   -45</i>
     <i name="WC">    100.00000000</i>
     <i type="int" name="INIMIX">     1</i>
     <i type="int" name="MIXPRE">     1</i>
     <i type="int" name="MREMOVE">     5</i>
    </separator>
   </separator>
   <separator name="electronic dipolcorrection" >
    <i type="logical" name="LDIPOL"> F  </i>
    <i type="logical" name="LMONO"> F  </i>
    <i type="int" name="IDIPOL">     0</i>
    <i name="EPSILON">      1.00000000</i>
    <v name="DIPOL">   -100.00000000   -100.00000000   -100.00000000</v>
    <i name="EFIELD">      0.00000000</i>
   </separator>
  </separator>
  <separator name="grids" >
   <i type="int" name="NGX">    36</i>
   <i type="int" name="NGY">    36</i>
   <i type="int" name="NGZ">    36</i>
   <i type="int" name="NGXF">    72</i>
   <i type="int" name="NGYF">    72</i>
   <i type="int" name="NGZF">    72</i>
   <i type="logical" name="ADDGRID"> F  </i>
  </separator>
  <separator name="ionic" >
   <i type="int" name="NSW">     1</i>
   <i type="int" name="IBRION">     8</i>
   <i type="int" name="MDALGO">     0</i>
   <i type="int" name="ISIF">     2</i>
   <i name="PSTRESS">      0.00000000</i>
   <i name="EDIFFG">      0.00000010</i>
   <i type="int" name="NFREE">     0</i>
   <i name="POTIM">      0.50000000</i>
   <i name="SMASS">     -3.00000000</i>
   <i name="SCALEE">      1.00000000</i>
  </separator>
  <separator name="ionic md" >
   <i name="TEBEG">      0.00010000</i>
   <i name="TEEND">      0.00010000</i>
   <i type="int" name="NBLOCK">     1</i>
   <i type="int" name="KBLOCK">     1</i>
   <i type="int" name="NPACO">   256</i>
   <i name="APACO">     16.00000000</i>
  </separator>
  <separator name="symmetry" >
   <i type="int" name="ISYM">     2</i>
   <i name="SYMPREC">      0.00000001</i>
  </separator>
  <separator name="dos" >
   <i type="int" name="LORBIT">     0</i>
   <v name="RWIGS">     -1.00000000     -1.00000000</v>
   <i type="int" name="NEDOS">   301</i>
   <i name="EMIN">     10.00000000</i>
   <i name="EMAX">    -10.00000000</i>
   <i name="EFERMI">      0.00000000</i>
  </separator>
  <separator name="writing" >
   <i type="int" name="NWRITE">     2</i>
   <i type="logical" name="LWAVE"> F  </i>
   <i type="logical" name="LDOWNSAMPLE"> F  </i>
   <i type="logical" name="LCHARG"> T  </i>
   <i type="logical" name="LPARD"> F  </i>
   <i type="logical" name="LVTOT"> F  </i>
   <i type="logical" name="LVHAR"> F  </i>
   <i type="logical" name="LELF"> F  </i>
   <i type="logical" name="LOPTICS"> F  </i>
   <v name="STM">      0.00000000      0.00000000      0.00000000      0.00000000      0.00000000      0.00000000      0.00000000</v>
  </separator>
  <separator name="performance" >
   <i type="int" name="NPAR">     8</i>
   <i type="int" name="NSIM">     4</i>
   <i type="int" name="NBLK">    -1</i>
   <i type="logical" name="LPLANE"> T  </i>
   <i type="logical" name="LSCALAPACK"> T  </i>
   <i type="logical" name="LSCAAWARE"> F  </i>
   <i type="logical" name="LSCALU"> F  </i>
   <i type="logical" name="LASYNC"> F  </i>
   <i type="logical" name="LORBITALREAL"> F  </i>
  </separator>
  <separator name="miscellaneous" >
   <i type="int" name="IDIOT">     3</i>
   <i type="int" name="ISPECIAL">     0</i>
   <i type="logical" name="LMUSIC"> F  </i>
   <v name="POMASS">     39.09800000     35.45300000</v>
   <v name="DARWINR">      0.00000000      0.00000000</v>
   <v name="DARWINV">      1.00000000      1.00000000</v>
   <i type="logical" name="LCORR"> T  </i>
  </separator>
  <i type="logical" name="GGA_COMPAT"> T  </i>
  <i type="logical" name="LBERRY"> F  </i>
  <i type="int" name="ICORELEVEL">     0</i>
  <i type="logical" name="LDAU"> F  </i>
  <i type="int" name="I_CONSTRAINED_M">     0</i>
  <separator name="electronic exchange-correlation" >
   <i type="string" name="GGA">--</i>
   <i type="int" name="VOSKOWN">     0</i>
   <i type="logical" name="LHFCALC"> F  </i>
   <i type="string" name="PRECFOCK"></i>
   <i type="logical" name="LSYMGRAD"> F  </i>
   <i type="logical" name="LHFONE"> F  </i>
   <i type="logical" name="LRHFCALC"> F  </i>
   <i type="logical" name="LTHOMAS"> F  </i>
   <i type="logical" name="LMODELHF"> F  </i>
   <i name="ENCUT4O">     -1.00000000</i>
   <i type="int" name="EXXOEP">     0</i>
   <i type="int" name="FOURORBIT">     0</i>
   <i name="AEXX">      0.00000000</i>
   <i name="HFALPHA">      0.00000000</i>
   <i name="MCALPHA">      0.00000000</i>
   <i name="ALDAX">      1.00000000</i>
   <i name="AGGAX">      1.00000000</i>
   <i name="ALDAC">      1.00000000</i>
   <i name="AGGAC">      1.00000000</i>
   <i type="int" name="NKREDX">     1</i>
   <i type="int" name="NKREDY">     1</i>
   <i type="int" name="NKREDZ">     1</i>
   <i type="logical" name="SHIFTRED"> F  </i>
   <i type="logical" name="ODDONLY"> F  </i>
   <i type="logical" name="EVENONLY"> F  </i>
   <i type="int" name="LMAXFOCK">     0</i>
   <i type="int" name="NMAXFOCKAE">     0</i>
   <i type="logical" name="LFOCKAEDFT"> F  </i>
   <i name="HFSCREEN">      0.00000000</i>
   <i name="HFSCREENC">      0.00000000</i>
   <i type="int" name="NBANDSGWLOW">     0</i>
  </separator>
  <separator name="vdW DFT" >
   <i type="logical" name="LUSE_VDW"> F  </i>
   <i name="Zab_VDW">     -0.84910000</i>
   <i name="PARAM1">      0.12340000</i>
   <i name="PARAM2">      1.00000000</i>
   <i name="PARAM3">      0.00000000</i>
  </separator>
  <separator name="model GW" >
   <i type="int" name="MODEL_GW">     0</i>
   <i name="MODEL_EPS0">     18.60871239</i>
   <i name="MODEL_ALPHA">      1.00000000</i>
  </separator>
  <separator name="linear response parameters" >
   <i type="logical" name="LEPSILON"> T  </i>
   <i type="logical" name="LRPA"> F  </i>
   <i type="logical" name="LNABLA"> F  </i>
   <i type="logical" name="LVEL"> F  </i>
   <i type="int" name="KINTER">     0</i>
   <i name="CSHIFT">      0.10000000</i>
   <i name="OMEGAMAX">     -1.00000000</i>
   <i name="DEG_THRESHOLD">      0.00200000</i>
   <i name="RTIME">     -0.10000000</i>
   <i name="WPLASMAI">      0.00000000</i>
   <v name="DFIELD">      0.00000000      0.00000000      0.00000000</v>
   <v name="WPLASMA">      0.00000000      0.00000000      0.00000000      0.00000000      0.00000000      0.00000000      0.00000000      0.00000000      0.00000000</v>
  </separator>
  <separator name="orbital magnetization" >
   <i type="logical" name="NUCIND"> F  </i>
   <v name="MAGPOS">      0.00000000      0.00000000      0.00000000</v>
   <i type="logical" name="LNICSALL"> T  </i>
   <i type="logical" name="ORBITALMAG"> F  </i>
   <i type="logical" name="LMAGBLOCH"> F  </i>
   <i type="logical" name="LCHIMAG"> F  </i>
   <i type="logical" name="LGAUGE"> T  </i>
   <i type="int" name="MAGATOM">     0</i>
   <v name="MAGDIPOL">      0.00000000      0.00000000      0.00000000</v>
   <v name="AVECCONST">      0.00000000      0.00000000      0.00000000</v>
  </separator>
  <separator name="response functions" >
   <i type="logical" name="LADDER"> F  </i>
   <i type="logical" name="LRPAFORCE"> F  </i>
   <i type="logical" name="LFXC"> F  </i>
   <i type="logical" name="LHARTREE"> T  </i>
   <i type="int" name="IBSE">     0</i>
   <v type="int" name="KPOINT">    -1     0     0     0</v>
   <i type="logical" name="LTCTE"> F  </i>
   <i type="logical" name="LTETE"> F  </i>
   <i type="logical" name="LTRIPLET"> F  </i>
   <i type="logical" name="LFXCEPS"> F  </i>
   <i type="logical" name="LFXHEG"> F  </i>
   <i type="int" name="NATURALO">     2</i>
   <i type="logical" name="L2ORDER"> F  </i>
   <i type="logical" name="LMP2LT"> F  </i>
   <i type="logical" name="LUSEW"> F  </i>
   <i name="ENCUTGW">     -2.00000000</i>
   <i name="ENCUTGWSOFT">     -2.00000000</i>
   <i name="ENCUTLF">     -1.00000000</i>
   <i type="int" name="LMAXMP2">    -1</i>
   <i name="SCISSOR">      0.00000000</i>
   <i type="int" name="NOMEGA">     0</i>
   <i type="int" name="NOMEGAR">     0</i>
   <i type="int" name="NBANDSGW">    -1</i>
   <i type="int" name="NBANDSO">    -1</i>
   <i type="int" name="NBANDSV">    -1</i>
   <i type="int" name="NELM">   100</i>
   <i type="int" name="NELMHF">     1</i>
   <i type="int" name="DIM">     3</i>
   <i type="int" name="ANTIRES">     0</i>
   <i name="OMEGAMAX">    -30.00000000</i>
   <i name="OMEGAMIN">    -30.00000000</i>
   <i name="OMEGATL">   -200.00000000</i>
   <i type="int" name="OMEGAGRID">   140</i>
   <i name="CSHIFT">     -0.10000000</i>
   <i type="logical" name="SELFENERGY"> F  </i>
   <i type="logical" name="LSPECTRAL"> F  </i>
   <i type="logical" name="LSPECTRALGW"> F  </i>
   <i type="logical" name="LSINGLES"> F  </i>
   <i type="logical" name="LFERMIGW"> F  </i>
   <i type="logical" name="ODDONLYGW"> F  </i>
   <i type="logical" name="EVENONLYGW"> F  </i>
   <i type="int" name="NKREDLFX">     1</i>
   <i type="int" name="NKREDLFY">     1</i>
   <i type="int" name="NKREDLFZ">     1</i>
   <i type="int" name="MAXMEM">  2800</i>
   <i type="int" name="TELESCOPE">     0</i>
   <i type="int" name="TAUPAR">     1</i>
   <i type="int" name="OMEGAPAR">    -1</i>
   <i name="LAMBDA">      1.00000000</i>
  </separator>
  <separator name="External order field" >
   <i name="OFIELD_KAPPA">      0.00000000</i>
   <v name="OFIELD_K">      0.00000000      0.00000000      0.00000000</v>
   <i name="OFIELD_Q6_NEAR">      0.00000000</i>
   <i name="OFIELD_Q6_FAR">      0.00000000</i>
   <i name="OFIELD_A">      0.00000000</i>
  </separator>
 </parameters>
 <atominfo>
  <atoms>       2 </atoms>
  <types>       2 </types>
  <array name="atoms" >
   <dimension dim="1">ion</dimension>
   <field type="string">element</field>
   <field type="int">atomtype</field>
   <set>
    <rc><c>K </c><c>   1</c></rc>
    <rc><c>Cl</c><c>   2</c></rc>
   </set>
  </array>
  <array name="atomtypes" >
   <dimension dim="1">type</dimension>
   <field type="int">atomspertype</field>
   <field type="string">element</field>
   <field>mass</field>
   <field>valence</field>
   <field type="string">pseudopotential</field>
   <set>
    <rc><c>   1</c><c>K </c><c>     39.09800000</c><c>      9.00000000</c><c>  PAW_PBE K_sv 06Sep2000                </c></rc>
    <rc><c>   1</c><c>Cl</c><c>     35.45300000</c><c>      7.00000000</c><c>  PAW_PBE Cl 06Sep2000                  </c></rc>
   </set>
  </array>
 </atominfo>
 <structure name="initialpos" >
  <crystal>
   <varray name="basis" >
    <v>      -3.14187106       0.00000000       3.14187106 </v>
    <v>       0.00000000       3.14187106       3.14187106 </v>
    <v>      -3.14187106       3.14187106       0.00000000 </v>
   </varray>
   <i name="volume">     62.02904131 </i>
   <varray name="rec_basis" >
    <v>      -0.15914084      -0.15914084       0.15914084 </v>
    <v>       0.15914084       0.15914084       0.15914084 </v>
    <v>      -0.15914084       0.15914084      -0.15914084 </v>
   </varray>
  </crystal>
  <varray name="positions" >
   <v>       0.00000000       0.00000000       0.00000000 </v>
   <v>       0.49999996       0.50000004       0.49999996 </v>
  </varray>
 </structure>
 <calculation>
  <scstep>
   <time name="dav">    1.52    1.53</time>
   <time name="total">    1.55    1.56</time>
   <energy>
    <i name="alphaZ">     43.34698804 </i>
    <i name="ewald">   -840.25704419 </i>
    <i name="hartreedc">   -274.26219663 </i>
    <i name="XCdc">     55.38942719 </i>
    <i name="pawpsdc">    919.30003394 </i>
    <i name="pawaedc">   -914.36889473 </i>
    <i name="eentropy">     -0.00008866 </i>
    <i name="bandstr">    -71.87082418 </i>
    <i name="atom">   1184.72885538 </i>
    <i name="e_fr_energy">    102.00625617 </i>
    <i name="e_wo_entrp">    102.00634483 </i>
    <i name="e_0_energy">    102.00630050 </i>
   </energy>
  </scstep>
  <scstep>
   <time name="dav">    1.92    1.93</time>
   <time name="total">    1.92    1.93</time>
   <energy>
    <i name="e_fr_energy">     -0.92406427 </i>
    <i name="e_wo_entrp">     -0.92406427 </i>
    <i name="e_0_energy">     -0.92406427 </i>
   </energy>
  </scstep>
  <scstep>
   <time name="dav">    1.93    1.94</time>
   <time name="total">    1.93    1.94</time>
   <energy>
    <i name="e_fr_energy">     -6.86819127 </i>
    <i name="e_wo_entrp">     -6.86819127 </i>
    <i name="e_0_energy">     -6.86819127 </i>
   </energy>
  </scstep>
  <scstep>
   <time name="dav">    2.01    2.02</time>
   <time name="total">    2.01    2.02</time>
   <energy>
    <i name="e_fr_energy">     -7.09087521 </i>
    <i name="e_wo_entrp">     -7.09087521 </i>
    <i name="e_0_energy">     -7.09087521 </i>
   </energy>
  </scstep>
  <scstep>
   <time name="dav">    1.99    2.00</time>
   <time name="total">    2.10    2.11</time>
   <energy>
    <i name="e_fr_energy">     -7.09257830 </i>
    <i name="e_wo_entrp">     -7.09257830 </i>
    <i name="e_0_energy">     -7.09257830 </i>
   </energy>
  </scstep>
  <scstep>
   <time name="dav">    1.81    1.81</time>
   <time name="total">    1.94    1.94</time>
   <energy>
    <i name="e_fr_energy">     -6.80365741 </i>
    <i name="e_wo_entrp">     -6.80365741 </i>
    <i name="e_0_energy">     -6.80365741 </i>
   </energy>
  </scstep>
  <scstep>
   <time name="dav">    1.91    1.93</time>
   <time name="total">    2.04    2.06</time>
   <energy>
    <i name="e_fr_energy">     -6.78905475 </i>
    <i name="e_wo_entrp">     -6.78905475 </i>
    <i name="e_0_energy">     -6.78905475 </i>
   </energy>
  </scstep>
  <scstep>
   <time name="dav">    1.74    1.74</time>
   <time name="total">    1.86    1.87</time>
   <energy>
    <i name="e_fr_energy">     -6.80109489 </i>
    <i name="e_wo_entrp">     -6.80109489 </i>
    <i name="e_0_energy">     -6.80109489 </i>
   </energy>
  </scstep>
  <scstep>
   <time name="dav">    1.95    1.96</time>
   <time name="total">    2.08    2.09</time>
   <energy>
    <i name="e_fr_energy">     -6.80183465 </i>
    <i name="e_wo_entrp">     -6.80183465 </i>
    <i name="e_0_energy">     -6.80183465 </i>
   </energy>
  </scstep>
  <scstep>
   <time name="dav">    1.58    1.59</time>
   <time name="total">    1.71    1.72</time>
   <energy>
    <i name="e_fr_energy">     -6.80238830 </i>
    <i name="e_wo_entrp">     -6.80238830 </i>
    <i name="e_0_energy">     -6.80238830 </i>
   </energy>
  </scstep>
  <scstep>
   <time name="dav">    2.00    2.01</time>
   <time name="total">    2.12    2.13</time>
   <energy>
    <i name="e_fr_energy">     -6.80239647 </i>
    <i name="e_wo_entrp">     -6.80239647 </i>
    <i name="e_0_energy">     -6.80239647 </i>
   </energy>
  </scstep>
  <scstep>
   <time name="dav">    1.63    1.65</time>
   <time name="total">    1.76    1.78</time>
   <energy>
    <i name="e_fr_energy">     -6.80239960 </i>
    <i name="e_wo_entrp">     -6.80239960 </i>
    <i name="e_0_energy">     -6.80239960 </i>
   </energy>
  </scstep>
  <scstep>
   <time name="dav">    2.04    2.04</time>
   <time name="total">    2.17    2.18</time>
   <energy>
    <i name="e_fr_energy">     -6.80239982 </i>
    <i name="e_wo_entrp">     -6.80239982 </i>
    <i name="e_0_energy">     -6.80239982 </i>
   </energy>
  </scstep>
  <scstep>
   <time name="dav">    1.69    1.70</time>
   <time name="total">    1.82    1.83</time>
   <energy>
    <i name="e_fr_energy">     -6.80239998 </i>
    <i name="e_wo_entrp">     -6.80239998 </i>
    <i name="e_0_energy">     -6.80239998 </i>
   </energy>
  </scstep>
  <scstep>
   <time name="dav">    1.72    1.73</time>
   <time name="total">    1.75    1.75</time>
   <energy>
    <i name="alphaZ">     43.34698804 </i>
    <i name="ewald">   -840.25704419 </i>
    <i name="hartreedc">   -279.76127969 </i>
    <i name="XCdc">     56.05852771 </i>
    <i name="pawpsdc">   1034.27082451 </i>
    <i name="pawaedc">  -1030.80865142 </i>
    <i name="eentropy">     -0.00000000 </i>
    <i name="bandstr">   -174.38062031 </i>
    <i name="atom">   1184.72885538 </i>
    <i name="e_fr_energy">     -6.80239997 </i>
    <i name="e_wo_entrp">     -6.80239997 </i>
    <i name="e_0_energy">     -6.80239997 </i>
   </energy>
  </scstep>
  <structure>
   <crystal>
    <varray name="basis" >
     <v>      -3.14187106       0.00000000       3.14187106 </v>
     <v>       0.00000000       3.14187106       3.14187106 </v>
     <v>      -3.14187106       3.14187106       0.00000000 </v>
    </varray>
    <i name="volume">     62.02904131 </i>
    <varray name="rec_basis" >
     <v>      -0.15914084      -0.15914084       0.15914084 </v>
     <v>       0.15914084       0.15914084       0.15914084 </v>
     <v>      -0.15914084       0.15914084      -0.15914084 </v>
    </varray>
   </crystal>
   <varray name="positions" >
    <v>       0.00000000       0.00000000       0.00000000 </v>
    <v>       0.49999996       0.50000004       0.49999996 </v>
   </varray>
  </structure>
  <varray name="forces" >
   <v>       0.00000050      -0.00000000      -0.00000000 </v>
   <v>      -0.00000050       0.00000000       0.00000000 </v>
  </varray>
  <varray name="stress" >
   <v>       8.67359739       0.00000000       0.00000000 </v>
   <v>       0.00000000       8.67358614      -0.00000000 </v>
   <v>       0.00000000      -0.00000000       8.67358614 </v>
  </varray>
  <energy>
   <i name="e_fr_energy">     -6.80239997 </i>
   <i name="e_wo_entrp">     -6.80239997 </i>
   <i name="e_0_energy">     -0.00000000 </i>
  </energy>
  <scstep>
   <time name="total">    1.68    1.68</time>
   <energy>
    <i name="e_fr_energy">     -0.26032876 </i>
    <i name="e_wo_entrp">     -0.26032876 </i>
    <i name="e_0_energy">     -0.26032876 </i>
   </energy>
  </scstep>
  <scstep>
   <time name="total">    1.72    1.72</time>
   <energy>
    <i name="e_fr_energy">     -0.26905106 </i>
    <i name="e_wo_entrp">     -0.26905106 </i>
    <i name="e_0_energy">     -0.26905106 </i>
   </energy>
  </scstep>
  <scstep>
   <time name="total">    1.76    1.76</time>
   <energy>
    <i name="e_fr_energy">     -0.27070200 </i>
    <i name="e_wo_entrp">     -0.27070200 </i>
    <i name="e_0_energy">     -0.27070200 </i>
   </energy>
  </scstep>
  <scstep>
   <time name="total">    1.74    1.74</time>
   <energy>
    <i name="e_fr_energy">     -0.27092111 </i>
    <i name="e_wo_entrp">     -0.27092111 </i>
    <i name="e_0_energy">     -0.27092111 </i>
   </energy>
  </scstep>
  <scstep>
   <time name="total">    1.74    1.74</time>
   <energy>
    <i name="e_fr_energy">     -0.27094345 </i>
    <i name="e_wo_entrp">     -0.27094345 </i>
    <i name="e_0_energy">     -0.27094345 </i>
   </energy>
  </scstep>
  <scstep>
   <time name="total">    1.68    1.68</time>
   <energy>
    <i name="e_fr_energy">     -0.27094639 </i>
    <i name="e_wo_entrp">     -0.27094639 </i>
    <i name="e_0_energy">     -0.27094639 </i>
   </energy>
  </scstep>
  <scstep>
   <time name="total">    1.67    1.67</time>
   <energy>
    <i name="e_fr_energy">     -0.27094679 </i>
    <i name="e_wo_entrp">     -0.27094679 </i>
    <i name="e_0_energy">     -0.27094679 </i>
   </energy>
  </scstep>
  <scstep>
   <time name="total">    1.67    1.67</time>
   <energy>
    <i name="e_fr_energy">     -0.27094684 </i>
    <i name="e_wo_entrp">     -0.27094684 </i>
    <i name="e_0_energy">     -0.27094684 </i>
   </energy>
  </scstep>
  <scstep>
   <time name="total">    1.67    1.67</time>
   <energy>
    <i name="e_fr_energy">     -0.27094685 </i>
    <i name="e_wo_entrp">     -0.27094685 </i>
    <i name="e_0_energy">     -0.27094685 </i>
   </energy>
  </scstep>
  <scstep>
   <time name="total">    1.67    1.67</time>
   <energy>
    <i name="e_fr_energy">     -0.27120000 </i>
    <i name="e_wo_entrp">     -0.27120000 </i>
    <i name="e_0_energy">     -0.27120000 </i>
   </energy>
  </scstep>
  <scstep>
   <time name="total">    1.76    1.76</time>
   <energy>
    <i name="e_fr_energy">     -0.27936821 </i>
    <i name="e_wo_entrp">     -0.27936821 </i>
    <i name="e_0_energy">     -0.27936821 </i>
   </energy>
  </scstep>
  <scstep>
   <time name="total">    1.77    1.77</time>
   <energy>
    <i name="e_fr_energy">     -0.28095067 </i>
    <i name="e_wo_entrp">     -0.28095067 </i>
    <i name="e_0_energy">     -0.28095067 </i>
   </energy>
  </scstep>
  <scstep>
   <time name="total">    1.78    1.78</time>
   <energy>
    <i name="e_fr_energy">     -0.28115980 </i>
    <i name="e_wo_entrp">     -0.28115980 </i>
    <i name="e_0_energy">     -0.28115980 </i>
   </energy>
  </scstep>
  <scstep>
   <time name="total">    1.77    1.77</time>
   <energy>
    <i name="e_fr_energy">     -0.28118118 </i>
    <i name="e_wo_entrp">     -0.28118118 </i>
    <i name="e_0_energy">     -0.28118118 </i>
   </energy>
  </scstep>
  <scstep>
   <time name="total">    1.73    1.73</time>
   <energy>
    <i name="e_fr_energy">     -0.28118400 </i>
    <i name="e_wo_entrp">     -0.28118400 </i>
    <i name="e_0_energy">     -0.28118400 </i>
   </energy>
  </scstep>
  <scstep>
   <time name="total">    1.75    1.75</time>
   <energy>
    <i name="e_fr_energy">     -0.28118438 </i>
    <i name="e_wo_entrp">     -0.28118438 </i>
    <i name="e_0_energy">     -0.28118438 </i>
   </energy>
  </scstep>
  <scstep>
   <time name="total">    1.73    1.73</time>
   <energy>
    <i name="e_fr_energy">     -0.28118443 </i>
    <i name="e_wo_entrp">     -0.28118443 </i>
    <i name="e_0_energy">     -0.28118443 </i>
   </energy>
  </scstep>
  <scstep>
   <time name="total">    1.74    1.74</time>
   <energy>
    <i name="e_fr_energy">     -0.28118444 </i>
    <i name="e_wo_entrp">     -0.28118444 </i>
    <i name="e_0_energy">     -0.28118444 </i>
   </energy>
  </scstep>
  <scstep>
   <time name="total">    1.66    1.66</time>
   <energy>
    <i name="e_fr_energy">     -0.24950021 </i>
    <i name="e_wo_entrp">     -0.24950021 </i>
    <i name="e_0_energy">     -0.24950021 </i>
   </energy>
  </scstep>
  <scstep>
   <time name="total">    1.70    1.70</time>
   <energy>
    <i name="e_fr_energy">     -0.25873189 </i>
    <i name="e_wo_entrp">     -0.25873189 </i>
    <i name="e_0_energy">     -0.25873189 </i>
   </energy>
  </scstep>
  <scstep>
   <time name="total">    1.73    1.73</time>
   <energy>
    <i name="e_fr_energy">     -0.26045268 </i>
    <i name="e_wo_entrp">     -0.26045268 </i>
    <i name="e_0_energy">     -0.26045268 </i>
   </energy>
  </scstep>
  <scstep>
   <time name="total">    1.74    1.75</time>
   <energy>
    <i name="e_fr_energy">     -0.26068309 </i>
    <i name="e_wo_entrp">     -0.26068309 </i>
    <i name="e_0_energy">     -0.26068309 </i>
   </energy>
  </scstep>
  <scstep>
   <time name="total">    1.72    1.72</time>
   <energy>
    <i name="e_fr_energy">     -0.26070660 </i>
    <i name="e_wo_entrp">     -0.26070660 </i>
    <i name="e_0_energy">     -0.26070660 </i>
   </energy>
  </scstep>
  <scstep>
   <time name="total">    1.69    1.69</time>
   <energy>
    <i name="e_fr_energy">     -0.26070969 </i>
    <i name="e_wo_entrp">     -0.26070969 </i>
    <i name="e_0_energy">     -0.26070969 </i>
   </energy>
  </scstep>
  <scstep>
   <time name="total">    1.68    1.68</time>
   <energy>
    <i name="e_fr_energy">     -0.26071011 </i>
    <i name="e_wo_entrp">     -0.26071011 </i>
    <i name="e_0_energy">     -0.26071011 </i>
   </energy>
  </scstep>
  <scstep>
   <time name="total">    1.67    1.67</time>
   <energy>
    <i name="e_fr_energy">     -0.26071017 </i>
    <i name="e_wo_entrp">     -0.26071017 </i>
    <i name="e_0_energy">     -0.26071017 </i>
   </energy>
  </scstep>
  <scstep>
   <time name="total">    1.67    1.67</time>
   <energy>
    <i name="e_fr_energy">     -0.26071018 </i>
    <i name="e_wo_entrp">     -0.26071018 </i>
    <i name="e_0_energy">     -0.26071018 </i>
   </energy>
  </scstep>
  <varray name="epsilon_rpa" >
   <v>       2.58082730      -0.00000000       0.00000000 </v>
   <v>      -0.00000000       2.58083037      -0.00000000 </v>
   <v>       0.00000000      -0.00000000       2.58083037 </v>
  </varray>
  <kpoints>
   <generation param="Gamma">
    <v type="int" name="divisions">      12       12       12 </v>
    <v name="usershift">      0.00000000       0.00000000       0.00000000 </v>
    <v name="genvec1">      0.08333333       0.00000000       0.00000000 </v>
    <v name="genvec2">      0.00000000       0.08333333      -0.00000000 </v>
    <v name="genvec3">     -0.00000000      -0.00000000       0.08333333 </v>
    <v name="shift">      0.00000000       0.00000000       0.00000000 </v>
   </generation>
   <varray name="kpointlist" >
    <v>       0.00000000       0.00000000       0.00000000 </v>
    <v>       0.08333333      -0.00000000      -0.00000000 </v>
    <v>       0.16666667      -0.00000000      -0.00000000 </v>
    <v>       0.25000000       0.00000000       0.00000000 </v>
    <v>       0.33333333      -0.00000000       0.00000000 </v>
    <v>       0.41666667       0.00000000       0.00000000 </v>
    <v>       0.50000000       0.00000000       0.00000000 </v>
    <v>       0.08333333       0.08333333      -0.00000000 </v>
    <v>       0.16666667       0.08333333       0.00000000 </v>
    <v>       0.25000000       0.08333333      -0.00000000 </v>
    <v>       0.33333333       0.08333333       0.00000000 </v>
    <v>       0.41666667       0.08333333      -0.00000000 </v>
    <v>       0.50000000       0.08333333      -0.00000000 </v>
    <v>      -0.41666667       0.08333333      -0.00000000 </v>
    <v>      -0.33333333       0.08333333       0.00000000 </v>
    <v>      -0.25000000       0.08333333      -0.00000000 </v>
    <v>      -0.16666667       0.08333333      -0.00000000 </v>
    <v>      -0.08333333       0.08333333       0.00000000 </v>
    <v>       0.16666667       0.16666667      -0.00000000 </v>
    <v>       0.25000000       0.16666667      -0.00000000 </v>
    <v>       0.33333333       0.16666667      -0.00000000 </v>
    <v>       0.41666667       0.16666667       0.00000000 </v>
    <v>       0.50000000       0.16666667       0.00000000 </v>
    <v>      -0.41666667       0.16666667      -0.00000000 </v>
    <v>      -0.33333333       0.16666667      -0.00000000 </v>
    <v>      -0.25000000       0.16666667       0.00000000 </v>
    <v>      -0.16666667       0.16666667       0.00000000 </v>
    <v>       0.25000000       0.25000000      -0.00000000 </v>
    <v>       0.33333333       0.25000000      -0.00000000 </v>
    <v>       0.41666667       0.25000000      -0.00000000 </v>
    <v>       0.50000000       0.25000000      -0.00000000 </v>
    <v>      -0.41666667       0.25000000      -0.00000000 </v>
    <v>      -0.33333333       0.25000000      -0.00000000 </v>
    <v>      -0.25000000       0.25000000      -0.00000000 </v>
    <v>       0.33333333       0.33333333      -0.00000000 </v>
    <v>       0.41666667       0.33333333      -0.00000000 </v>
    <v>       0.50000000       0.33333333      -0.00000000 </v>
    <v>      -0.41666667       0.33333333      -0.00000000 </v>
    <v>      -0.33333333       0.33333333      -0.00000000 </v>
    <v>       0.41666667       0.41666667      -0.00000000 </v>
    <v>       0.50000000       0.41666667      -0.00000000 </v>
    <v>      -0.41666667       0.41666667       0.00000000 </v>
    <v>       0.50000000       0.50000000      -0.00000000 </v>
    <v>       0.08333333      -0.00000000       0.08333333 </v>
    <v>       0.16666667       0.00000000       0.08333333 </v>
    <v>       0.25000000      -0.00000000       0.08333333 </v>
    <v>       0.33333333      -0.00000000       0.08333333 </v>
    <v>       0.41666667      -0.00000000       0.08333333 </v>
    <v>       0.50000000      -0.00000000       0.08333333 </v>
    <v>      -0.41666667       0.00000000       0.08333333 </v>
    <v>      -0.33333333       0.00000000       0.08333333 </v>
    <v>      -0.25000000      -0.00000000       0.08333333 </v>
    <v>      -0.16666667      -0.00000000       0.08333333 </v>
    <v>      -0.08333333      -0.00000000       0.08333333 </v>
    <v>       0.25000000       0.16666667       0.08333333 </v>
    <v>       0.33333333       0.16666667       0.08333333 </v>
    <v>       0.41666667       0.16666667       0.08333333 </v>
    <v>       0.50000000       0.16666667       0.08333333 </v>
    <v>      -0.41666667       0.16666667       0.08333333 </v>
    <v>       0.16666667       0.25000000       0.08333333 </v>
    <v>       0.33333333       0.25000000       0.08333333 </v>
    <v>       0.41666667       0.25000000       0.08333333 </v>
    <v>       0.50000000       0.25000000       0.08333333 </v>
    <v>      -0.41666667       0.25000000       0.08333333 </v>
    <v>      -0.33333333       0.25000000       0.08333333 </v>
    <v>      -0.25000000       0.25000000       0.08333333 </v>
    <v>      -0.16666667       0.25000000       0.08333333 </v>
    <v>       0.16666667       0.33333333       0.08333333 </v>
    <v>       0.25000000       0.33333333       0.08333333 </v>
    <v>       0.41666667       0.33333333       0.08333333 </v>
    <v>       0.50000000       0.33333333       0.08333333 </v>
    <v>      -0.41666667       0.33333333       0.08333333 </v>
    <v>      -0.33333333       0.33333333       0.08333333 </v>
    <v>      -0.25000000       0.33333333       0.08333333 </v>
    <v>       0.16666667       0.41666667       0.08333333 </v>
    <v>       0.25000000       0.41666667       0.08333333 </v>
    <v>       0.33333333       0.41666667       0.08333333 </v>
    <v>       0.50000000       0.41666667       0.08333333 </v>
    <v>      -0.41666667       0.41666667       0.08333333 </v>
    <v>      -0.33333333       0.41666667       0.08333333 </v>
    <v>       0.16666667       0.50000000       0.08333333 </v>
    <v>       0.25000000       0.50000000       0.08333333 </v>
    <v>       0.33333333       0.50000000       0.08333333 </v>
    <v>       0.41666667       0.50000000       0.08333333 </v>
    <v>      -0.41666667       0.50000000       0.08333333 </v>
    <v>       0.16666667      -0.41666667       0.08333333 </v>
    <v>       0.25000000      -0.41666667       0.08333333 </v>
    <v>       0.33333333      -0.41666667       0.08333333 </v>
    <v>       0.41666667      -0.41666667       0.08333333 </v>
    <v>       0.50000000      -0.41666667       0.08333333 </v>
    <v>       0.16666667      -0.33333333       0.08333333 </v>
    <v>       0.25000000      -0.33333333       0.08333333 </v>
    <v>       0.33333333      -0.33333333       0.08333333 </v>
    <v>       0.41666667      -0.33333333       0.08333333 </v>
    <v>       0.16666667      -0.25000000       0.08333333 </v>
    <v>       0.25000000      -0.25000000       0.08333333 </v>
    <v>       0.33333333      -0.25000000       0.08333333 </v>
    <v>       0.16666667      -0.16666667       0.08333333 </v>
    <v>       0.25000000      -0.16666667       0.08333333 </v>
    <v>       0.16666667      -0.08333333       0.08333333 </v>
    <v>       0.16666667      -0.00000000       0.16666667 </v>
    <v>       0.25000000       0.00000000       0.16666667 </v>
    <v>       0.33333333      -0.00000000       0.16666667 </v>
    <v>       0.41666667       0.00000000       0.16666667 </v>
    <v>       0.50000000       0.00000000       0.16666667 </v>
    <v>      -0.41666667      -0.00000000       0.16666667 </v>
    <v>      -0.33333333      -0.00000000       0.16666667 </v>
    <v>      -0.25000000       0.00000000       0.16666667 </v>
    <v>      -0.16666667       0.00000000       0.16666667 </v>
    <v>       0.50000000       0.33333333       0.16666667 </v>
    <v>      -0.41666667       0.33333333       0.16666667 </v>
    <v>      -0.33333333       0.33333333       0.16666667 </v>
    <v>       0.25000000       0.41666667       0.16666667 </v>
    <v>      -0.41666667       0.41666667       0.16666667 </v>
    <v>      -0.33333333       0.41666667       0.16666667 </v>
    <v>      -0.25000000       0.41666667       0.16666667 </v>
    <v>       0.25000000       0.50000000       0.16666667 </v>
    <v>       0.33333333       0.50000000       0.16666667 </v>
    <v>      -0.33333333       0.50000000       0.16666667 </v>
    <v>       0.25000000      -0.41666667       0.16666667 </v>
    <v>       0.33333333      -0.41666667       0.16666667 </v>
    <v>       0.41666667      -0.41666667       0.16666667 </v>
    <v>       0.25000000      -0.33333333       0.16666667 </v>
    <v>       0.33333333      -0.33333333       0.16666667 </v>
    <v>       0.41666667      -0.33333333       0.16666667 </v>
    <v>       0.50000000      -0.33333333       0.16666667 </v>
    <v>       0.25000000      -0.25000000       0.16666667 </v>
    <v>       0.33333333      -0.25000000       0.16666667 </v>
    <v>       0.41666667      -0.25000000       0.16666667 </v>
    <v>       0.25000000      -0.16666667       0.16666667 </v>
    <v>       0.33333333      -0.16666667       0.16666667 </v>
    <v>       0.25000000      -0.08333333       0.16666667 </v>
    <v>       0.25000000      -0.00000000       0.25000000 </v>
    <v>       0.33333333      -0.00000000       0.25000000 </v>
    <v>       0.41666667      -0.00000000       0.25000000 </v>
    <v>       0.50000000      -0.00000000       0.25000000 </v>
    <v>      -0.41666667       0.00000000       0.25000000 </v>
    <v>      -0.33333333      -0.00000000       0.25000000 </v>
    <v>      -0.25000000      -0.00000000       0.25000000 </v>
    <v>      -0.25000000       0.50000000       0.25000000 </v>
    <v>       0.33333333      -0.41666667       0.25000000 </v>
    <v>       0.33333333      -0.33333333       0.25000000 </v>
    <v>       0.41666667      -0.33333333       0.25000000 </v>
    <v>       0.33333333      -0.25000000       0.25000000 </v>
    <v>       0.41666667      -0.25000000       0.25000000 </v>
    <v>       0.50000000      -0.25000000       0.25000000 </v>
    <v>       0.33333333      -0.16666667       0.25000000 </v>
    <v>       0.41666667      -0.16666667       0.25000000 </v>
    <v>       0.33333333      -0.08333333       0.25000000 </v>
    <v>       0.33333333      -0.00000000       0.33333333 </v>
    <v>       0.41666667      -0.00000000       0.33333333 </v>
    <v>       0.50000000       0.00000000       0.33333333 </v>
    <v>      -0.41666667       0.00000000       0.33333333 </v>
    <v>      -0.33333333       0.00000000       0.33333333 </v>
    <v>       0.41666667      -0.25000000       0.33333333 </v>
    <v>       0.41666667      -0.16666667       0.33333333 </v>
    <v>       0.50000000      -0.16666667       0.33333333 </v>
    <v>       0.41666667      -0.08333333       0.33333333 </v>
    <v>       0.41666667      -0.00000000       0.41666667 </v>
    <v>       0.50000000      -0.00000000       0.41666667 </v>
    <v>      -0.41666667      -0.00000000       0.41666667 </v>
    <v>       0.50000000      -0.08333333       0.41666667 </v>
    <v>       0.50000000      -0.00000000       0.50000000 </v>
   </varray>
   <varray name="weights" >
    <v>       0.00057870 </v>
    <v>       0.00462963 </v>
    <v>       0.00462963 </v>
    <v>       0.00462963 </v>
    <v>       0.00462963 </v>
    <v>       0.00462963 </v>
    <v>       0.00231481 </v>
    <v>       0.00231481 </v>
    <v>       0.00925926 </v>
    <v>       0.00925926 </v>
    <v>       0.00925926 </v>
    <v>       0.00925926 </v>
    <v>       0.00925926 </v>
    <v>       0.00925926 </v>
    <v>       0.00925926 </v>
    <v>       0.00925926 </v>
    <v>       0.00925926 </v>
    <v>       0.00462963 </v>
    <v>       0.00231481 </v>
    <v>       0.00925926 </v>
    <v>       0.00925926 </v>
    <v>       0.00925926 </v>
    <v>       0.00925926 </v>
    <v>       0.00925926 </v>
    <v>       0.00925926 </v>
    <v>       0.00925926 </v>
    <v>       0.00462963 </v>
    <v>       0.00231481 </v>
    <v>       0.00925926 </v>
    <v>       0.00925926 </v>
    <v>       0.00925926 </v>
    <v>       0.00925926 </v>
    <v>       0.00925926 </v>
    <v>       0.00462963 </v>
    <v>       0.00231481 </v>
    <v>       0.00925926 </v>
    <v>       0.00925926 </v>
    <v>       0.00925926 </v>
    <v>       0.00462963 </v>
    <v>       0.00231481 </v>
    <v>       0.00925926 </v>
    <v>       0.00462963 </v>
    <v>       0.00115741 </v>
    <v>       0.00115741 </v>
    <v>       0.00462963 </v>
    <v>       0.00462963 </v>
    <v>       0.00462963 </v>
    <v>       0.00462963 </v>
    <v>       0.00462963 </v>
    <v>       0.00462963 </v>
    <v>       0.00462963 </v>
    <v>       0.00462963 </v>
    <v>       0.00462963 </v>
    <v>       0.00231481 </v>
    <v>       0.00462963 </v>
    <v>       0.00925926 </v>
    <v>       0.00925926 </v>
    <v>       0.00925926 </v>
    <v>       0.00462963 </v>
    <v>       0.00462963 </v>
    <v>       0.00462963 </v>
    <v>       0.00925926 </v>
    <v>       0.00925926 </v>
    <v>       0.00925926 </v>
    <v>       0.00925926 </v>
    <v>       0.00925926 </v>
    <v>       0.00462963 </v>
    <v>       0.00925926 </v>
    <v>       0.00462963 </v>
    <v>       0.00462963 </v>
    <v>       0.00925926 </v>
    <v>       0.00925926 </v>
    <v>       0.00925926 </v>
    <v>       0.00462963 </v>
    <v>       0.00925926 </v>
    <v>       0.00925926 </v>
    <v>       0.00462963 </v>
    <v>       0.00462963 </v>
    <v>       0.00925926 </v>
    <v>       0.00462963 </v>
    <v>       0.00925926 </v>
    <v>       0.00925926 </v>
    <v>       0.00925926 </v>
    <v>       0.00462963 </v>
    <v>       0.00231481 </v>
    <v>       0.00925926 </v>
    <v>       0.00925926 </v>
    <v>       0.00925926 </v>
    <v>       0.00925926 </v>
    <v>       0.00231481 </v>
    <v>       0.00925926 </v>
    <v>       0.00925926 </v>
    <v>       0.00925926 </v>
    <v>       0.00462963 </v>
    <v>       0.00925926 </v>
    <v>       0.00925926 </v>
    <v>       0.00462963 </v>
    <v>       0.00925926 </v>
    <v>       0.00462963 </v>
    <v>       0.00462963 </v>
    <v>       0.00115741 </v>
    <v>       0.00462963 </v>
    <v>       0.00462963 </v>
    <v>       0.00462963 </v>
    <v>       0.00462963 </v>
    <v>       0.00462963 </v>
    <v>       0.00462963 </v>
    <v>       0.00462963 </v>
    <v>       0.00231481 </v>
    <v>       0.00462963 </v>
    <v>       0.00925926 </v>
    <v>       0.00462963 </v>
    <v>       0.00462963 </v>
    <v>       0.00462963 </v>
    <v>       0.00925926 </v>
    <v>       0.00462963 </v>
    <v>       0.00925926 </v>
    <v>       0.00462963 </v>
    <v>       0.00231481 </v>
    <v>       0.00925926 </v>
    <v>       0.00925926 </v>
    <v>       0.00462963 </v>
    <v>       0.00925926 </v>
    <v>       0.00925926 </v>
    <v>       0.00925926 </v>
    <v>       0.00231481 </v>
    <v>       0.00925926 </v>
    <v>       0.00925926 </v>
    <v>       0.00462963 </v>
    <v>       0.00925926 </v>
    <v>       0.00462963 </v>
    <v>       0.00462963 </v>
    <v>       0.00115741 </v>
    <v>       0.00462963 </v>
    <v>       0.00462963 </v>
    <v>       0.00462963 </v>
    <v>       0.00462963 </v>
    <v>       0.00462963 </v>
    <v>       0.00231481 </v>
    <v>       0.00115741 </v>
    <v>       0.00462963 </v>
    <v>       0.00925926 </v>
    <v>       0.00462963 </v>
    <v>       0.00925926 </v>
    <v>       0.00925926 </v>
    <v>       0.00231481 </v>
    <v>       0.00925926 </v>
    <v>       0.00462963 </v>
    <v>       0.00462963 </v>
    <v>       0.00115741 </v>
    <v>       0.00462963 </v>
    <v>       0.00462963 </v>
    <v>       0.00462963 </v>
    <v>       0.00231481 </v>
    <v>       0.00462963 </v>
    <v>       0.00925926 </v>
    <v>       0.00231481 </v>
    <v>       0.00462963 </v>
    <v>       0.00115741 </v>
    <v>       0.00462963 </v>
    <v>       0.00231481 </v>
    <v>       0.00231481 </v>
    <v>       0.00057870 </v>
   </varray>
  </kpoints>
  <scstep>
   <time name="total">    1.66    1.66</time>
   <energy>
    <i name="e_fr_energy">     -0.26032876 </i>
    <i name="e_wo_entrp">     -0.26032876 </i>
    <i name="e_0_energy">     -0.26032876 </i>
   </energy>
  </scstep>
  <scstep>
   <time name="total">    1.91    1.91</time>
   <energy>
    <i name="e_fr_energy">     -0.26905106 </i>
    <i name="e_wo_entrp">     -0.26905106 </i>
    <i name="e_0_energy">     -0.26905106 </i>
   </energy>
  </scstep>
  <scstep>
   <time name="total">    2.31    2.31</time>
   <energy>
    <i name="e_fr_energy">     -0.23596220 </i>
    <i name="e_wo_entrp">     -0.23596220 </i>
    <i name="e_0_energy">     -0.23596220 </i>
   </energy>
  </scstep>
  <scstep>
   <time name="total">    2.76    2.76</time>
   <energy>
    <i name="e_fr_energy">     -0.24469437 </i>
    <i name="e_wo_entrp">     -0.24469437 </i>
    <i name="e_0_energy">     -0.24469437 </i>
   </energy>
  </scstep>
  <scstep>
   <time name="total">    2.41    2.42</time>
   <energy>
    <i name="e_fr_energy">     -0.25866164 </i>
    <i name="e_wo_entrp">     -0.25866164 </i>
    <i name="e_0_energy">     -0.25866164 </i>
   </energy>
  </scstep>
  <scstep>
   <time name="total">    2.98    2.98</time>
   <energy>
    <i name="e_fr_energy">     -0.25873713 </i>
    <i name="e_wo_entrp">     -0.25873713 </i>
    <i name="e_0_energy">     -0.25873713 </i>
   </energy>
  </scstep>
  <scstep>
   <time name="total">    2.97    2.97</time>
   <energy>
    <i name="e_fr_energy">     -0.25932096 </i>
    <i name="e_wo_entrp">     -0.25932096 </i>
    <i name="e_0_energy">     -0.25932096 </i>
   </energy>
  </scstep>
  <scstep>
   <time name="total">    2.83    2.83</time>
   <energy>
    <i name="e_fr_energy">     -0.25983076 </i>
    <i name="e_wo_entrp">     -0.25983076 </i>
    <i name="e_0_energy">     -0.25983076 </i>
   </energy>
  </scstep>
  <scstep>
   <time name="total">    3.01    3.01</time>
   <energy>
    <i name="e_fr_energy">     -0.25984818 </i>
    <i name="e_wo_entrp">     -0.25984818 </i>
    <i name="e_0_energy">     -0.25984818 </i>
   </energy>
  </scstep>
  <scstep>
   <time name="total">    2.98    2.98</time>
   <energy>
    <i name="e_fr_energy">     -0.25984975 </i>
    <i name="e_wo_entrp">     -0.25984975 </i>
    <i name="e_0_energy">     -0.25984975 </i>
   </energy>
  </scstep>
  <scstep>
   <time name="total">    3.04    3.04</time>
   <energy>
    <i name="e_fr_energy">     -0.25984714 </i>
    <i name="e_wo_entrp">     -0.25984714 </i>
    <i name="e_0_energy">     -0.25984714 </i>
   </energy>
  </scstep>
  <scstep>
   <time name="total">    2.98    2.98</time>
   <energy>
    <i name="e_fr_energy">     -0.25984677 </i>
    <i name="e_wo_entrp">     -0.25984677 </i>
    <i name="e_0_energy">     -0.25984677 </i>
   </energy>
  </scstep>
  <scstep>
   <time name="total">    3.02    3.02</time>
   <energy>
    <i name="e_fr_energy">     -0.25984756 </i>
    <i name="e_wo_entrp">     -0.25984756 </i>
    <i name="e_0_energy">     -0.25984756 </i>
   </energy>
  </scstep>
  <scstep>
   <time name="total">    2.81    2.81</time>
   <energy>
    <i name="e_fr_energy">     -0.25984792 </i>
    <i name="e_wo_entrp">     -0.25984792 </i>
    <i name="e_0_energy">     -0.25984792 </i>
   </energy>
  </scstep>
  <scstep>
   <time name="total">    2.51    2.51</time>
   <energy>
    <i name="e_fr_energy">     -0.25984797 </i>
    <i name="e_wo_entrp">     -0.25984797 </i>
    <i name="e_0_energy">     -0.25984797 </i>
   </energy>
  </scstep>
  <kpoints>
   <generation param="Gamma">
    <v type="int" name="divisions">      12       12       12 </v>
    <v name="usershift">      0.00000000       0.00000000       0.00000000 </v>
    <v name="genvec1">      0.08333333       0.00000000       0.00000000 </v>
    <v name="genvec2">      0.00000000       0.08333333      -0.00000000 </v>
    <v name="genvec3">     -0.00000000      -0.00000000       0.08333333 </v>
    <v name="shift">      0.00000000       0.00000000       0.00000000 </v>
   </generation>
   <varray name="kpointlist" >
    <v>       0.00000000       0.00000000       0.00000000 </v>
    <v>       0.08333333      -0.00000000      -0.00000000 </v>
    <v>       0.16666667      -0.00000000      -0.00000000 </v>
    <v>       0.25000000       0.00000000       0.00000000 </v>
    <v>       0.33333333      -0.00000000       0.00000000 </v>
    <v>       0.41666667       0.00000000       0.00000000 </v>
    <v>       0.50000000       0.00000000       0.00000000 </v>
    <v>       0.08333333       0.08333333      -0.00000000 </v>
    <v>       0.16666667       0.08333333       0.00000000 </v>
    <v>       0.25000000       0.08333333      -0.00000000 </v>
    <v>       0.33333333       0.08333333       0.00000000 </v>
    <v>       0.41666667       0.08333333      -0.00000000 </v>
    <v>       0.50000000       0.08333333      -0.00000000 </v>
    <v>      -0.41666667       0.08333333      -0.00000000 </v>
    <v>      -0.33333333       0.08333333       0.00000000 </v>
    <v>      -0.25000000       0.08333333      -0.00000000 </v>
    <v>      -0.16666667       0.08333333      -0.00000000 </v>
    <v>      -0.08333333       0.08333333       0.00000000 </v>
    <v>       0.16666667       0.16666667      -0.00000000 </v>
    <v>       0.25000000       0.16666667      -0.00000000 </v>
    <v>       0.33333333       0.16666667      -0.00000000 </v>
    <v>       0.41666667       0.16666667       0.00000000 </v>
    <v>       0.50000000       0.16666667       0.00000000 </v>
    <v>      -0.41666667       0.16666667      -0.00000000 </v>
    <v>      -0.33333333       0.16666667      -0.00000000 </v>
    <v>      -0.25000000       0.16666667       0.00000000 </v>
    <v>      -0.16666667       0.16666667       0.00000000 </v>
    <v>       0.25000000       0.25000000      -0.00000000 </v>
    <v>       0.33333333       0.25000000      -0.00000000 </v>
    <v>       0.41666667       0.25000000      -0.00000000 </v>
    <v>       0.50000000       0.25000000      -0.00000000 </v>
    <v>      -0.41666667       0.25000000      -0.00000000 </v>
    <v>      -0.33333333       0.25000000      -0.00000000 </v>
    <v>      -0.25000000       0.25000000      -0.00000000 </v>
    <v>       0.33333333       0.33333333      -0.00000000 </v>
    <v>       0.41666667       0.33333333      -0.00000000 </v>
    <v>       0.50000000       0.33333333      -0.00000000 </v>
    <v>      -0.41666667       0.33333333      -0.00000000 </v>
    <v>      -0.33333333       0.33333333      -0.00000000 </v>
    <v>       0.41666667       0.41666667      -0.00000000 </v>
    <v>       0.50000000       0.41666667      -0.00000000 </v>
    <v>      -0.41666667       0.41666667       0.00000000 </v>
    <v>       0.50000000       0.50000000      -0.00000000 </v>
    <v>       0.00000000       0.00000000       0.08333333 </v>
    <v>       0.08333333      -0.00000000       0.08333333 </v>
    <v>       0.16666667       0.00000000       0.08333333 </v>
    <v>       0.25000000      -0.00000000       0.08333333 </v>
    <v>       0.33333333      -0.00000000       0.08333333 </v>
    <v>       0.41666667      -0.00000000       0.08333333 </v>
    <v>       0.50000000      -0.00000000       0.08333333 </v>
    <v>      -0.41666667       0.00000000       0.08333333 </v>
    <v>      -0.33333333       0.00000000       0.08333333 </v>
    <v>      -0.25000000      -0.00000000       0.08333333 </v>
    <v>      -0.16666667      -0.00000000       0.08333333 </v>
    <v>      -0.08333333      -0.00000000       0.08333333 </v>
    <v>      -0.00000000       0.08333333       0.08333333 </v>
    <v>       0.16666667       0.08333333       0.08333333 </v>
    <v>       0.25000000       0.08333333       0.08333333 </v>
    <v>       0.33333333       0.08333333       0.08333333 </v>
    <v>       0.41666667       0.08333333       0.08333333 </v>
    <v>       0.50000000       0.08333333       0.08333333 </v>
    <v>      -0.41666667       0.08333333       0.08333333 </v>
    <v>      -0.33333333       0.08333333       0.08333333 </v>
    <v>      -0.25000000       0.08333333       0.08333333 </v>
    <v>      -0.16666667       0.08333333       0.08333333 </v>
    <v>      -0.08333333       0.08333333       0.08333333 </v>
    <v>       0.16666667       0.16666667       0.08333333 </v>
    <v>       0.25000000       0.16666667       0.08333333 </v>
    <v>       0.33333333       0.16666667       0.08333333 </v>
    <v>       0.41666667       0.16666667       0.08333333 </v>
    <v>       0.50000000       0.16666667       0.08333333 </v>
    <v>      -0.41666667       0.16666667       0.08333333 </v>
    <v>      -0.33333333       0.16666667       0.08333333 </v>
    <v>      -0.25000000       0.16666667       0.08333333 </v>
    <v>      -0.16666667       0.16666667       0.08333333 </v>
    <v>      -0.08333333       0.16666667       0.08333333 </v>
    <v>       0.16666667       0.25000000       0.08333333 </v>
    <v>       0.25000000       0.25000000       0.08333333 </v>
    <v>       0.33333333       0.25000000       0.08333333 </v>
    <v>       0.41666667       0.25000000       0.08333333 </v>
    <v>       0.50000000       0.25000000       0.08333333 </v>
    <v>      -0.41666667       0.25000000       0.08333333 </v>
    <v>      -0.33333333       0.25000000       0.08333333 </v>
    <v>      -0.25000000       0.25000000       0.08333333 </v>
    <v>      -0.16666667       0.25000000       0.08333333 </v>
    <v>       0.16666667       0.33333333       0.08333333 </v>
    <v>       0.25000000       0.33333333       0.08333333 </v>
    <v>       0.33333333       0.33333333       0.08333333 </v>
    <v>       0.41666667       0.33333333       0.08333333 </v>
    <v>       0.50000000       0.33333333       0.08333333 </v>
    <v>      -0.41666667       0.33333333       0.08333333 </v>
    <v>      -0.33333333       0.33333333       0.08333333 </v>
    <v>      -0.25000000       0.33333333       0.08333333 </v>
    <v>       0.16666667       0.41666667       0.08333333 </v>
    <v>       0.25000000       0.41666667       0.08333333 </v>
    <v>       0.33333333       0.41666667       0.08333333 </v>
    <v>       0.41666667       0.41666667       0.08333333 </v>
    <v>       0.50000000       0.41666667       0.08333333 </v>
    <v>      -0.41666667       0.41666667       0.08333333 </v>
    <v>      -0.33333333       0.41666667       0.08333333 </v>
    <v>       0.16666667       0.50000000       0.08333333 </v>
    <v>       0.25000000       0.50000000       0.08333333 </v>
    <v>       0.33333333       0.50000000       0.08333333 </v>
    <v>       0.41666667       0.50000000       0.08333333 </v>
    <v>       0.50000000       0.50000000       0.08333333 </v>
    <v>      -0.41666667       0.50000000       0.08333333 </v>
    <v>       0.16666667      -0.41666667       0.08333333 </v>
    <v>       0.25000000      -0.41666667       0.08333333 </v>
    <v>       0.33333333      -0.41666667       0.08333333 </v>
    <v>       0.41666667      -0.41666667       0.08333333 </v>
    <v>       0.50000000      -0.41666667       0.08333333 </v>
    <v>       0.16666667      -0.33333333       0.08333333 </v>
    <v>       0.25000000      -0.33333333       0.08333333 </v>
    <v>       0.33333333      -0.33333333       0.08333333 </v>
    <v>       0.41666667      -0.33333333       0.08333333 </v>
    <v>       0.16666667      -0.25000000       0.08333333 </v>
    <v>       0.25000000      -0.25000000       0.08333333 </v>
    <v>       0.33333333      -0.25000000       0.08333333 </v>
    <v>       0.16666667      -0.16666667       0.08333333 </v>
    <v>       0.25000000      -0.16666667       0.08333333 </v>
    <v>       0.16666667      -0.08333333       0.08333333 </v>
    <v>       0.00000000       0.00000000       0.16666667 </v>
    <v>       0.08333333      -0.00000000       0.16666667 </v>
    <v>       0.16666667      -0.00000000       0.16666667 </v>
    <v>       0.25000000       0.00000000       0.16666667 </v>
    <v>       0.33333333      -0.00000000       0.16666667 </v>
    <v>       0.41666667       0.00000000       0.16666667 </v>
    <v>       0.50000000       0.00000000       0.16666667 </v>
    <v>      -0.41666667      -0.00000000       0.16666667 </v>
    <v>      -0.33333333      -0.00000000       0.16666667 </v>
    <v>      -0.25000000       0.00000000       0.16666667 </v>
    <v>      -0.16666667       0.00000000       0.16666667 </v>
    <v>      -0.08333333      -0.00000000       0.16666667 </v>
    <v>      -0.00000000       0.08333333       0.16666667 </v>
    <v>       0.08333333       0.08333333       0.16666667 </v>
    <v>       0.25000000       0.08333333       0.16666667 </v>
    <v>       0.33333333       0.08333333       0.16666667 </v>
    <v>       0.41666667       0.08333333       0.16666667 </v>
    <v>       0.50000000       0.08333333       0.16666667 </v>
    <v>      -0.41666667       0.08333333       0.16666667 </v>
    <v>      -0.33333333       0.08333333       0.16666667 </v>
    <v>      -0.25000000       0.08333333       0.16666667 </v>
    <v>      -0.16666667       0.08333333       0.16666667 </v>
    <v>      -0.08333333       0.08333333       0.16666667 </v>
    <v>      -0.00000000       0.16666667       0.16666667 </v>
    <v>       0.25000000       0.16666667       0.16666667 </v>
    <v>       0.33333333       0.16666667       0.16666667 </v>
    <v>       0.41666667       0.16666667       0.16666667 </v>
    <v>       0.50000000       0.16666667       0.16666667 </v>
    <v>      -0.41666667       0.16666667       0.16666667 </v>
    <v>      -0.33333333       0.16666667       0.16666667 </v>
    <v>      -0.25000000       0.16666667       0.16666667 </v>
    <v>      -0.16666667       0.16666667       0.16666667 </v>
    <v>      -0.08333333       0.16666667       0.16666667 </v>
    <v>       0.25000000       0.25000000       0.16666667 </v>
    <v>       0.33333333       0.25000000       0.16666667 </v>
    <v>       0.41666667       0.25000000       0.16666667 </v>
    <v>       0.50000000       0.25000000       0.16666667 </v>
    <v>      -0.41666667       0.25000000       0.16666667 </v>
    <v>      -0.33333333       0.25000000       0.16666667 </v>
    <v>      -0.25000000       0.25000000       0.16666667 </v>
    <v>      -0.16666667       0.25000000       0.16666667 </v>
    <v>      -0.08333333       0.25000000       0.16666667 </v>
    <v>       0.25000000       0.33333333       0.16666667 </v>
    <v>       0.33333333       0.33333333       0.16666667 </v>
    <v>       0.41666667       0.33333333       0.16666667 </v>
    <v>       0.50000000       0.33333333       0.16666667 </v>
    <v>      -0.41666667       0.33333333       0.16666667 </v>
    <v>      -0.33333333       0.33333333       0.16666667 </v>
    <v>      -0.25000000       0.33333333       0.16666667 </v>
    <v>      -0.16666667       0.33333333       0.16666667 </v>
    <v>       0.25000000       0.41666667       0.16666667 </v>
    <v>       0.33333333       0.41666667       0.16666667 </v>
    <v>       0.41666667       0.41666667       0.16666667 </v>
    <v>       0.50000000       0.41666667       0.16666667 </v>
    <v>      -0.41666667       0.41666667       0.16666667 </v>
    <v>      -0.33333333       0.41666667       0.16666667 </v>
    <v>      -0.25000000       0.41666667       0.16666667 </v>
    <v>       0.25000000       0.50000000       0.16666667 </v>
    <v>       0.33333333       0.50000000       0.16666667 </v>
    <v>       0.41666667       0.50000000       0.16666667 </v>
    <v>       0.50000000       0.50000000       0.16666667 </v>
    <v>      -0.41666667       0.50000000       0.16666667 </v>
    <v>      -0.33333333       0.50000000       0.16666667 </v>
    <v>       0.25000000      -0.41666667       0.16666667 </v>
    <v>       0.33333333      -0.41666667       0.16666667 </v>
    <v>       0.41666667      -0.41666667       0.16666667 </v>
    <v>       0.50000000      -0.41666667       0.16666667 </v>
    <v>      -0.41666667      -0.41666667       0.16666667 </v>
    <v>       0.25000000      -0.33333333       0.16666667 </v>
    <v>       0.33333333      -0.33333333       0.16666667 </v>
    <v>       0.41666667      -0.33333333       0.16666667 </v>
    <v>       0.50000000      -0.33333333       0.16666667 </v>
    <v>       0.25000000      -0.25000000       0.16666667 </v>
    <v>       0.33333333      -0.25000000       0.16666667 </v>
    <v>       0.41666667      -0.25000000       0.16666667 </v>
    <v>       0.25000000      -0.16666667       0.16666667 </v>
    <v>       0.33333333      -0.16666667       0.16666667 </v>
    <v>       0.25000000      -0.08333333       0.16666667 </v>
    <v>      -0.00000000      -0.00000000       0.25000000 </v>
    <v>       0.08333333       0.00000000       0.25000000 </v>
    <v>       0.16666667      -0.00000000       0.25000000 </v>
    <v>       0.25000000      -0.00000000       0.25000000 </v>
    <v>       0.33333333      -0.00000000       0.25000000 </v>
    <v>       0.41666667      -0.00000000       0.25000000 </v>
    <v>       0.50000000      -0.00000000       0.25000000 </v>
    <v>      -0.41666667       0.00000000       0.25000000 </v>
    <v>      -0.33333333      -0.00000000       0.25000000 </v>
    <v>      -0.25000000      -0.00000000       0.25000000 </v>
    <v>      -0.16666667      -0.00000000       0.25000000 </v>
    <v>      -0.08333333       0.00000000       0.25000000 </v>
    <v>      -0.00000000       0.08333333       0.25000000 </v>
    <v>       0.08333333       0.08333333       0.25000000 </v>
    <v>       0.16666667       0.08333333       0.25000000 </v>
    <v>       0.33333333       0.08333333       0.25000000 </v>
    <v>       0.41666667       0.08333333       0.25000000 </v>
    <v>       0.50000000       0.08333333       0.25000000 </v>
    <v>      -0.41666667       0.08333333       0.25000000 </v>
    <v>      -0.33333333       0.08333333       0.25000000 </v>
    <v>      -0.25000000       0.08333333       0.25000000 </v>
    <v>      -0.16666667       0.08333333       0.25000000 </v>
    <v>      -0.08333333       0.08333333       0.25000000 </v>
    <v>      -0.00000000       0.16666667       0.25000000 </v>
    <v>       0.08333333       0.16666667       0.25000000 </v>
    <v>       0.33333333       0.16666667       0.25000000 </v>
    <v>       0.41666667       0.16666667       0.25000000 </v>
    <v>       0.50000000       0.16666667       0.25000000 </v>
    <v>      -0.41666667       0.16666667       0.25000000 </v>
    <v>      -0.33333333       0.16666667       0.25000000 </v>
    <v>      -0.25000000       0.16666667       0.25000000 </v>
    <v>      -0.16666667       0.16666667       0.25000000 </v>
    <v>      -0.08333333       0.16666667       0.25000000 </v>
    <v>      -0.00000000       0.25000000       0.25000000 </v>
    <v>       0.33333333       0.25000000       0.25000000 </v>
    <v>       0.41666667       0.25000000       0.25000000 </v>
    <v>       0.50000000       0.25000000       0.25000000 </v>
    <v>      -0.41666667       0.25000000       0.25000000 </v>
    <v>      -0.33333333       0.25000000       0.25000000 </v>
    <v>      -0.25000000       0.25000000       0.25000000 </v>
[...]
       <r>    8.3667    0.0000 </r>
       <r>    9.1397    0.0000 </r>
       <r>    9.9012    0.0000 </r>
       <r>   10.4997    0.0000 </r>
       <r>   11.1815    0.0000 </r>
      </set>
      <set comment="kpoint 158">
       <r>  -28.9987    1.0000 </r>
       <r>  -13.9058    1.0000 </r>
       <r>  -12.5695    1.0000 </r>
       <r>  -12.5312    1.0000 </r>
       <r>  -12.4801    1.0000 </r>
       <r>   -2.5010    1.0000 </r>
       <r>   -2.0995    1.0000 </r>
       <r>   -2.0757    1.0000 </r>
       <r>    4.9771    0.0000 </r>
       <r>    6.4019    0.0000 </r>
       <r>    8.1820    0.0000 </r>
       <r>    8.5294    0.0000 </r>
       <r>    8.9788    0.0000 </r>
       <r>    9.6567    0.0000 </r>
       <r>    9.8996    0.0000 </r>
       <r>   11.6691    0.0000 </r>
      </set>
      <set comment="kpoint 159">
       <r>  -28.9988    1.0000 </r>
       <r>  -13.8816    1.0000 </r>
       <r>  -12.5657    1.0000 </r>
       <r>  -12.5255    1.0000 </r>
       <r>  -12.5255    1.0000 </r>
       <r>   -2.5110    1.0000 </r>
       <r>   -2.0381    1.0000 </r>
       <r>   -2.0381    1.0000 </r>
       <r>    4.7895    0.0000 </r>
       <r>    6.2280    0.0000 </r>
       <r>    8.3425    0.0000 </r>
       <r>    8.4694    0.0000 </r>
       <r>    9.1712    0.0000 </r>
       <r>    9.6788    0.0000 </r>
       <r>    9.6788    0.0000 </r>
       <r>   11.7860    0.0000 </r>
      </set>
      <set comment="kpoint 160">
       <r>  -28.9981    1.0000 </r>
       <r>  -13.8696    1.0000 </r>
       <r>  -12.6015    1.0000 </r>
       <r>  -12.5262    1.0000 </r>
       <r>  -12.5116    1.0000 </r>
       <r>   -2.4831    1.0000 </r>
       <r>   -2.0917    1.0000 </r>
       <r>   -2.0559    1.0000 </r>
       <r>    4.8216    0.0000 </r>
       <r>    6.5673    0.0000 </r>
       <r>    8.1587    0.0000 </r>
       <r>    8.4820    0.0000 </r>
       <r>    8.8432    0.0000 </r>
       <r>    9.7809    0.0000 </r>
       <r>    9.9899    0.0000 </r>
       <r>   11.9333    0.0000 </r>
      </set>
      <set comment="kpoint 161">
       <r>  -28.9979    1.0000 </r>
       <r>  -13.8979    1.0000 </r>
       <r>  -12.6053    1.0000 </r>
       <r>  -12.5210    1.0000 </r>
       <r>  -12.4718    1.0000 </r>
       <r>   -2.4416    1.0000 </r>
       <r>   -2.2191    1.0000 </r>
       <r>   -2.0837    1.0000 </r>
       <r>    5.0690    0.0000 </r>
       <r>    7.0054    0.0000 </r>
       <r>    7.7016    0.0000 </r>
       <r>    8.5631    0.0000 </r>
       <r>    8.7393    0.0000 </r>
       <r>    9.6203    0.0000 </r>
       <r>   10.3887    0.0000 </r>
       <r>   11.6457    0.0000 </r>
      </set>
      <set comment="kpoint 162">
       <r>  -28.9978    1.0000 </r>
       <r>  -13.8720    1.0000 </r>
       <r>  -12.6111    1.0000 </r>
       <r>  -12.5352    1.0000 </r>
       <r>  -12.4909    1.0000 </r>
       <r>   -2.4629    1.0000 </r>
       <r>   -2.1175    1.0000 </r>
       <r>   -2.0876    1.0000 </r>
       <r>    4.8965    0.0000 </r>
       <r>    6.7690    0.0000 </r>
       <r>    7.9132    0.0000 </r>
       <r>    8.5892    0.0000 </r>
       <r>    8.6929    0.0000 </r>
       <r>    9.8882    0.0000 </r>
       <r>   10.0840    0.0000 </r>
       <r>   11.9255    0.0000 </r>
      </set>
      <set comment="kpoint 163">
       <r>  -28.9979    1.0000 </r>
       <r>  -13.8459    1.0000 </r>
       <r>  -12.6170    1.0000 </r>
       <r>  -12.5293    1.0000 </r>
       <r>  -12.5293    1.0000 </r>
       <r>   -2.4847    1.0000 </r>
       <r>   -2.0489    1.0000 </r>
       <r>   -2.0489    1.0000 </r>
       <r>    4.7055    0.0000 </r>
       <r>    6.5445    0.0000 </r>
       <r>    8.2750    0.0000 </r>
       <r>    8.4232    0.0000 </r>
       <r>    8.8208    0.0000 </r>
       <r>    9.8819    0.0000 </r>
       <r>    9.8819    0.0000 </r>
       <r>   12.1614    0.0000 </r>
      </set>
     </set>
    </set>
   </array>
  </eigenvalues>
  <separator name="orbital magnetization" >
   <v name="MAGDIPOLOUT">      0.00000000      0.00000000      0.00000000</v>
  </separator>
  <dos>
   <i name="efermi">     -1.71006458 </i>
   <total>
    <array>
     <dimension dim="1">gridpoints</dimension>
     <dimension dim="2">spin</dimension>
     <field>energy</field>
     <field>total</field>
     <field>integrated</field>
     <set>
      <set comment="spin 1">
       <r>   -31.1940     0.0000     0.0000 </r>
       <r>   -31.0339     0.0000     0.0000 </r>
       <r>   -30.8739     0.0000     0.0000 </r>
       <r>   -30.7139     0.0000     0.0000 </r>
       <r>   -30.5539     0.0000     0.0000 </r>
       <r>   -30.3939     0.0000     0.0000 </r>
       <r>   -30.2338     0.0000     0.0000 </r>
       <r>   -30.0738     0.0000     0.0000 </r>
       <r>   -29.9138     0.0000     0.0000 </r>
       <r>   -29.7538     0.0000     0.0000 </r>
       <r>   -29.5937     0.0000     0.0000 </r>
       <r>   -29.4337     0.0000     0.0000 </r>
       <r>   -29.2737     0.0000     0.0000 </r>
       <r>   -29.1137     0.0000     0.0000 </r>
       <r>   -28.9537    12.4983     2.0000 </r>
       <r>   -28.7936     0.0000     2.0000 </r>
       <r>   -28.6336     0.0000     2.0000 </r>
       <r>   -28.4736     0.0000     2.0000 </r>
       <r>   -28.3136     0.0000     2.0000 </r>
       <r>   -28.1536     0.0000     2.0000 </r>
       <r>   -27.9935     0.0000     2.0000 </r>
       <r>   -27.8335     0.0000     2.0000 </r>
       <r>   -27.6735     0.0000     2.0000 </r>
       <r>   -27.5135     0.0000     2.0000 </r>
       <r>   -27.3535     0.0000     2.0000 </r>
       <r>   -27.1934     0.0000     2.0000 </r>
       <r>   -27.0334     0.0000     2.0000 </r>
       <r>   -26.8734     0.0000     2.0000 </r>
       <r>   -26.7134     0.0000     2.0000 </r>
       <r>   -26.5533     0.0000     2.0000 </r>
       <r>   -26.3933     0.0000     2.0000 </r>
       <r>   -26.2333     0.0000     2.0000 </r>
       <r>   -26.0733     0.0000     2.0000 </r>
       <r>   -25.9133     0.0000     2.0000 </r>
       <r>   -25.7532     0.0000     2.0000 </r>
       <r>   -25.5932     0.0000     2.0000 </r>
       <r>   -25.4332     0.0000     2.0000 </r>
       <r>   -25.2732     0.0000     2.0000 </r>
       <r>   -25.1132     0.0000     2.0000 </r>
       <r>   -24.9531     0.0000     2.0000 </r>
       <r>   -24.7931     0.0000     2.0000 </r>
       <r>   -24.6331     0.0000     2.0000 </r>
       <r>   -24.4731     0.0000     2.0000 </r>
       <r>   -24.3131     0.0000     2.0000 </r>
       <r>   -24.1530     0.0000     2.0000 </r>
       <r>   -23.9930     0.0000     2.0000 </r>
       <r>   -23.8330     0.0000     2.0000 </r>
       <r>   -23.6730     0.0000     2.0000 </r>
       <r>   -23.5129     0.0000     2.0000 </r>
       <r>   -23.3529     0.0000     2.0000 </r>
       <r>   -23.1929     0.0000     2.0000 </r>
       <r>   -23.0329     0.0000     2.0000 </r>
       <r>   -22.8729     0.0000     2.0000 </r>
       <r>   -22.7128     0.0000     2.0000 </r>
       <r>   -22.5528     0.0000     2.0000 </r>
       <r>   -22.3928     0.0000     2.0000 </r>
       <r>   -22.2328     0.0000     2.0000 </r>
       <r>   -22.0728     0.0000     2.0000 </r>
       <r>   -21.9127     0.0000     2.0000 </r>
       <r>   -21.7527     0.0000     2.0000 </r>
       <r>   -21.5927     0.0000     2.0000 </r>
       <r>   -21.4327     0.0000     2.0000 </r>
       <r>   -21.2726     0.0000     2.0000 </r>
       <r>   -21.1126     0.0000     2.0000 </r>
       <r>   -20.9526     0.0000     2.0000 </r>
       <r>   -20.7926     0.0000     2.0000 </r>
       <r>   -20.6326     0.0000     2.0000 </r>
       <r>   -20.4725     0.0000     2.0000 </r>
       <r>   -20.3125     0.0000     2.0000 </r>
       <r>   -20.1525     0.0000     2.0000 </r>
       <r>   -19.9925     0.0000     2.0000 </r>
       <r>   -19.8325     0.0000     2.0000 </r>
       <r>   -19.6724     0.0000     2.0000 </r>
       <r>   -19.5124     0.0000     2.0000 </r>
       <r>   -19.3524     0.0000     2.0000 </r>
       <r>   -19.1924     0.0000     2.0000 </r>
       <r>   -19.0324     0.0000     2.0000 </r>
       <r>   -18.8723     0.0000     2.0000 </r>
       <r>   -18.7123     0.0000     2.0000 </r>
       <r>   -18.5523     0.0000     2.0000 </r>
       <r>   -18.3923     0.0000     2.0000 </r>
       <r>   -18.2322     0.0000     2.0000 </r>
       <r>   -18.0722     0.0000     2.0000 </r>
       <r>   -17.9122     0.0000     2.0000 </r>
       <r>   -17.7522     0.0000     2.0000 </r>
       <r>   -17.5922     0.0000     2.0000 </r>
       <r>   -17.4321     0.0000     2.0000 </r>
       <r>   -17.2721     0.0000     2.0000 </r>
       <r>   -17.1121     0.0000     2.0000 </r>
       <r>   -16.9521     0.0000     2.0000 </r>
       <r>   -16.7921     0.0000     2.0000 </r>
       <r>   -16.6320     0.0000     2.0000 </r>
       <r>   -16.4720     0.0000     2.0000 </r>
       <r>   -16.3120     0.0000     2.0000 </r>
       <r>   -16.1520     0.0000     2.0000 </r>
       <r>   -15.9920     0.0000     2.0000 </r>
       <r>   -15.8319     0.0000     2.0000 </r>
       <r>   -15.6719     0.0000     2.0000 </r>
       <r>   -15.5119     0.0000     2.0000 </r>
       <r>   -15.3519     0.0000     2.0000 </r>
       <r>   -15.1918     0.0000     2.0000 </r>
       <r>   -15.0318     0.0000     2.0000 </r>
       <r>   -14.8718     0.0000     2.0000 </r>
       <r>   -14.7118     0.0000     2.0000 </r>
       <r>   -14.5518     0.0000     2.0000 </r>
       <r>   -14.3917     0.0000     2.0000 </r>
       <r>   -14.2317     0.0000     2.0000 </r>
       <r>   -14.0717     1.8953     2.3033 </r>
       <r>   -13.9117     3.1858     3.8848 </r>
       <r>   -13.7517     0.0000     4.0000 </r>
       <r>   -13.5916     0.0000     4.0000 </r>
       <r>   -13.4316     0.0000     4.0000 </r>
       <r>   -13.2716     0.0000     4.0000 </r>
       <r>   -13.1116     0.0000     4.0000 </r>
       <r>   -12.9515     0.0000     4.0000 </r>
       <r>   -12.7915     0.0000     4.0000 </r>
       <r>   -12.6315     0.0006     4.0001 </r>
       <r>   -12.4715    21.3664     7.9989 </r>
       <r>   -12.3115     6.6479     9.5939 </r>
       <r>   -12.1514     0.0289    10.0000 </r>
       <r>   -11.9914     0.0000    10.0000 </r>
       <r>   -11.8314     0.0000    10.0000 </r>
       <r>   -11.6714     0.0000    10.0000 </r>
       <r>   -11.5114     0.0000    10.0000 </r>
       <r>   -11.3513     0.0000    10.0000 </r>
       <r>   -11.1913     0.0000    10.0000 </r>
       <r>   -11.0313     0.0000    10.0000 </r>
       <r>   -10.8713     0.0000    10.0000 </r>
       <r>   -10.7113     0.0000    10.0000 </r>
       <r>   -10.5512     0.0000    10.0000 </r>
       <r>   -10.3912     0.0000    10.0000 </r>
       <r>   -10.2312     0.0000    10.0000 </r>
       <r>   -10.0712     0.0000    10.0000 </r>
       <r>    -9.9111     0.0000    10.0000 </r>
       <r>    -9.7511     0.0000    10.0000 </r>
       <r>    -9.5911     0.0000    10.0000 </r>
       <r>    -9.4311     0.0000    10.0000 </r>
       <r>    -9.2711     0.0000    10.0000 </r>
       <r>    -9.1110     0.0000    10.0000 </r>
       <r>    -8.9510     0.0000    10.0000 </r>
       <r>    -8.7910     0.0000    10.0000 </r>
       <r>    -8.6310     0.0000    10.0000 </r>
       <r>    -8.4710     0.0000    10.0000 </r>
       <r>    -8.3109     0.0000    10.0000 </r>
       <r>    -8.1509     0.0000    10.0000 </r>
       <r>    -7.9909     0.0000    10.0000 </r>
       <r>    -7.8309     0.0000    10.0000 </r>
       <r>    -7.6709     0.0000    10.0000 </r>
       <r>    -7.5108     0.0000    10.0000 </r>
       <r>    -7.3508     0.0000    10.0000 </r>
       <r>    -7.1908     0.0000    10.0000 </r>
       <r>    -7.0308     0.0000    10.0000 </r>
       <r>    -6.8707     0.0000    10.0000 </r>
       <r>    -6.7107     0.0000    10.0000 </r>
       <r>    -6.5507     0.0000    10.0000 </r>
       <r>    -6.3907     0.0000    10.0000 </r>
       <r>    -6.2307     0.0000    10.0000 </r>
       <r>    -6.0706     0.0000    10.0000 </r>
       <r>    -5.9106     0.0000    10.0000 </r>
       <r>    -5.7506     0.0000    10.0000 </r>
       <r>    -5.5906     0.0000    10.0000 </r>
       <r>    -5.4306     0.0000    10.0000 </r>
       <r>    -5.2705     0.0000    10.0000 </r>
       <r>    -5.1105     0.0000    10.0000 </r>
       <r>    -4.9505     0.0000    10.0000 </r>
       <r>    -4.7905     0.0000    10.0000 </r>
       <r>    -4.6305     0.0000    10.0000 </r>
       <r>    -4.4704     0.0000    10.0000 </r>
       <r>    -4.3104     0.0000    10.0000 </r>
       <r>    -4.1504     0.0000    10.0000 </r>
       <r>    -3.9904     0.0000    10.0000 </r>
       <r>    -3.8303     0.0000    10.0000 </r>
       <r>    -3.6703     0.0000    10.0000 </r>
       <r>    -3.5103     0.0000    10.0000 </r>
       <r>    -3.3503     0.0000    10.0000 </r>
       <r>    -3.1903     0.0000    10.0000 </r>
       <r>    -3.0302     0.0000    10.0000 </r>
       <r>    -2.8702     0.0285    10.0046 </r>
       <r>    -2.7102     1.2147    10.2638 </r>
       <r>    -2.5502     2.5162    10.9952 </r>
       <r>    -2.3902     1.5478    11.7882 </r>
       <r>    -2.2301     2.6929    12.3696 </r>
       <r>    -2.0701     8.2596    14.8182 </r>
       <r>    -1.9101     1.8751    15.8545 </r>
       <r>    -1.7501     0.0217    16.0000 </r>
       <r>    -1.5900     0.0000    16.0000 </r>
       <r>    -1.4300     0.0000    16.0000 </r>
       <r>    -1.2700     0.0000    16.0000 </r>
       <r>    -1.1100     0.0000    16.0000 </r>
       <r>    -0.9500     0.0000    16.0000 </r>
       <r>    -0.7899     0.0000    16.0000 </r>
       <r>    -0.6299     0.0000    16.0000 </r>
       <r>    -0.4699     0.0000    16.0000 </r>
       <r>    -0.3099     0.0000    16.0000 </r>
       <r>    -0.1499     0.0000    16.0000 </r>
       <r>     0.0102     0.0000    16.0000 </r>
       <r>     0.1702     0.0000    16.0000 </r>
       <r>     0.3302     0.0000    16.0000 </r>
       <r>     0.4902     0.0000    16.0000 </r>
       <r>     0.6502     0.0000    16.0000 </r>
       <r>     0.8103     0.0000    16.0000 </r>
       <r>     0.9703     0.0000    16.0000 </r>
       <r>     1.1303     0.0000    16.0000 </r>
       <r>     1.2903     0.0000    16.0000 </r>
       <r>     1.4504     0.0000    16.0000 </r>
       <r>     1.6104     0.0000    16.0000 </r>
       <r>     1.7704     0.0000    16.0000 </r>
       <r>     1.9304     0.0000    16.0000 </r>
       <r>     2.0904     0.0000    16.0000 </r>
       <r>     2.2505     0.0000    16.0000 </r>
       <r>     2.4105     0.0000    16.0000 </r>
       <r>     2.5705     0.0000    16.0000 </r>
       <r>     2.7305     0.0000    16.0000 </r>
       <r>     2.8905     0.0000    16.0000 </r>
       <r>     3.0506     0.0000    16.0000 </r>
       <r>     3.2106     0.0000    16.0000 </r>
       <r>     3.3706     0.0012    16.0002 </r>
       <r>     3.5306     0.0001    16.0012 </r>
       <r>     3.6906     0.0000    16.0174 </r>
       <r>     3.8507     0.0868    16.0312 </r>
       <r>     4.0107     0.1891    16.0615 </r>
       <r>     4.1707     0.0433    16.0752 </r>
       <r>     4.3307     0.1742    16.1031 </r>
       <r>     4.4908     0.0001    16.1308 </r>
       <r>     4.6508     0.2287    16.1952 </r>
       <r>     4.8108     0.0954    16.2143 </r>
       <r>     4.9708     0.6444    16.3577 </r>
       <r>     5.1308     0.2321    16.4793 </r>
       <r>     5.2909     0.4050    16.6597 </r>
       <r>     5.4509     0.4849    16.8762 </r>
       <r>     5.6109     1.1420    17.2244 </r>
       <r>     5.7709     1.0695    17.4790 </r>
       <r>     5.9309     0.8505    17.9069 </r>
       <r>     6.0910     1.0378    18.3466 </r>
       <r>     6.2510     1.6043    18.7567 </r>
       <r>     6.4110     1.0968    19.0714 </r>
       <r>     6.5710     1.6903    19.4649 </r>
       <r>     6.7311     1.4514    19.8225 </r>
       <r>     6.8911     0.1049    19.9126 </r>
       <r>     7.0511     0.4355    20.0951 </r>
       <r>     7.2111     0.1774    20.1927 </r>
       <r>     7.3711     0.2943    20.3087 </r>
       <r>     7.5312     0.5021    20.4739 </r>
       <r>     7.6912     1.6977    20.7740 </r>
       <r>     7.8512     1.2710    21.1015 </r>
       <r>     8.0112     1.3932    21.6790 </r>
       <r>     8.1712     1.8051    22.1963 </r>
       <r>     8.3313     2.6280    23.0409 </r>
       <r>     8.4913     2.0309    23.7937 </r>
       <r>     8.6513     3.0885    24.5706 </r>
       <r>     8.8113     2.0985    25.2062 </r>
       <r>     8.9713     1.8077    25.8552 </r>
       <r>     9.1314     1.9147    26.3585 </r>
       <r>     9.2914     0.6574    26.6781 </r>
       <r>     9.4514     0.5302    26.9263 </r>
       <r>     9.6114     1.0078    27.3638 </r>
       <r>     9.7715     1.4910    27.7421 </r>
       <r>     9.9315     1.2007    27.9595 </r>
       <r>    10.0915     1.1754    28.4555 </r>
       <r>    10.2515     1.3957    29.0463 </r>
       <r>    10.4115     0.2872    29.3295 </r>
       <r>    10.5716     2.0870    29.7703 </r>
       <r>    10.7316     0.6133    29.9465 </r>
       <r>    10.8916     0.8622    30.1484 </r>
       <r>    11.0516     0.9896    30.4743 </r>
       <r>    11.2116     0.5280    30.6806 </r>
       <r>    11.3717     0.9426    30.9217 </r>
       <r>    11.5317     0.3633    31.0743 </r>
       <r>    11.6917     0.3303    31.2705 </r>
       <r>    11.8517     0.9083    31.4486 </r>
       <r>    12.0117     0.3472    31.5694 </r>
       <r>    12.1718     0.0336    31.6119 </r>
       <r>    12.3318     0.5642    31.7836 </r>
       <r>    12.4918     0.1735    31.8322 </r>
       <r>    12.6518     0.0580    31.8878 </r>
       <r>    12.8119     0.1157    31.9248 </r>
       <r>    12.9719     0.0434    31.9317 </r>
       <r>    13.1319     0.0000    31.9317 </r>
       <r>    13.2919     0.2315    31.9687 </r>
       <r>    13.4519     0.0868    31.9826 </r>
       <r>    13.6120     0.0000    31.9826 </r>
       <r>    13.7720     0.0000    31.9826 </r>
       <r>    13.9320     0.0000    31.9826 </r>
       <r>    14.0920     0.0443    31.9897 </r>
       <r>    14.2520     0.0000    31.9988 </r>
       <r>    14.4121     0.0000    31.9988 </r>
       <r>    14.5721     0.0000    31.9988 </r>
       <r>    14.7321     0.0000    32.0000 </r>
       <r>    14.8921     0.0000    32.0000 </r>
       <r>    15.0522     0.0000    32.0000 </r>
       <r>    15.2122     0.0000    32.0000 </r>
       <r>    15.3722     0.0000    32.0000 </r>
       <r>    15.5322     0.0000    32.0000 </r>
       <r>    15.6922     0.0000    32.0000 </r>
       <r>    15.8523     0.0000    32.0000 </r>
       <r>    16.0123     0.0000    32.0000 </r>
       <r>    16.1723     0.0000    32.0000 </r>
       <r>    16.3323     0.0000    32.0000 </r>
       <r>    16.4923     0.0000    32.0000 </r>
       <r>    16.6524     0.0000    32.0000 </r>
       <r>    16.8124     0.0000    32.0000 </r>
      </set>
     </set>
    </array>
   </total>
  </dos>
 </calculation>
 <structure name="finalpos" >
  <crystal>
   <varray name="basis" >
    <v>      -3.14187106       0.00000000       3.14187106 </v>
    <v>       0.00000000       3.14187106       3.14187106 </v>
    <v>      -3.14187106       3.14187106       0.00000000 </v>
   </varray>
   <i name="volume">     62.02904131 </i>
   <varray name="rec_basis" >
    <v>      -0.15914084      -0.15914084       0.15914084 </v>
    <v>       0.15914084       0.15914084       0.15914084 </v>
    <v>      -0.15914084       0.15914084      -0.15914084 </v>
   </varray>
  </crystal>
  <varray name="positions" >
   <v>       0.00000000       0.00000000       0.00000000 </v>
   <v>       0.49999996       0.50000004       0.49999996 </v>
  </varray>
 </structure>
</modeling>
