 
             +---------------------------------------------------+
             |                                                   |
             |                   WANNIER90                       |
             |                                                   |
             +---------------------------------------------------+
             |                                                   |
             |        Welcome to the Maximally-Localized         |
             |        Generalized Wannier Functions code         |
             |            http://www.wannier.org                 |
             |                                                   |
             |                                                   |
             |  Wannier90 Developer Group:                       |
             |    Giovanni Pizzi    (EPFL)                       |
             |    Valerio Vitale    (Cambridge)                  |
             |    David Vanderbilt  (Rutgers University)         |
             |    Nicola Marzari    (EPFL)                       |
             |    Ivo Souza         (Universidad del Pais Vasco) |
             |    Arash A. Mostofi  (Imperial College London)    |
             |    Jonathan R. Yates (University of Oxford)       |
             |                                                   |
             |  For the full list of Wannier90 3.x authors,      |
             |  please check the code documentation and the      |
             |  README on the GitHub page of the code            |
             |                                                   |
             |                                                   |
             |  Please cite                                      |
             |                                                   |
             |  [ref] "Wannier90 as a community code:            |
             |        new features and applications",            |
             |        G. Pizzi et al., J. Phys. Cond. Matt. 32,  |
             |        165902 (2020).                             |
             |        http://doi.org/10.1088/1361-648X/ab51ff    |
             |                                                   |
             |  in any publications arising from the use of      |
             |  this code. For the method please cite            |
             |                                                   |
             |  [ref] "Maximally Localized Generalised Wannier   |
             |         Functions for Composite Energy Bands"     |
             |         N. Marzari and D. Vanderbilt              |
             |         Phys. Rev. B 56 12847 (1997)              |
             |                                                   |
             |  [ref] "Maximally Localized Wannier Functions     |
             |         for Entangled Energy Bands"               |
             |         I. Souza, N. Marzari and D. Vanderbilt    |
             |         Phys. Rev. B 65 035109 (2001)             |
             |                                                   |
             |                                                   |
             | Copyright (c) 1996-2020                           |
             |        The Wannier90 Developer Group and          |
             |        individual contributors                    |
             |                                                   |
             |      Release: 3.1.0        5th March    2020      |
             |                                                   |
             | This program is free software; you can            |
             | redistribute it and/or modify it under the terms  |
             | of the GNU General Public License as published by |
             | the Free Software Foundation; either version 2 of |
             | the License, or (at your option) any later version|
             |                                                   |
             | This program is distributed in the hope that it   |
             | will be useful, but WITHOUT ANY WARRANTY; without |
             | even the implied warranty of MERCHANTABILITY or   |
             | FITNESS FOR A PARTICULAR PURPOSE. See the GNU     |
             | General Public License for more details.          |
             |                                                   |
             | You should have received a copy of the GNU General|
             | Public License along with this program; if not,   |
             | write to the Free Software Foundation, Inc.,      |
             | 675 Mass Ave, Cambridge, MA 02139, USA.           |
             |                                                   |
             +---------------------------------------------------+
             |    Execution started on  3Jan2024 at 14:36:04     |
             +---------------------------------------------------+
 
 ******************************************************************************
 * -> Using CODATA 2006 constant values                                       *
 *    (http://physics.nist.gov/cuu/Constants/index.html)                      *
 * -> Using Bohr value from CODATA                                            *
 ******************************************************************************
 

 Running in parallel on   8 CPUs

 
                                    ------
                                    SYSTEM
                                    ------
 
                              Lattice Vectors (Ang)
                    a_1    -3.141871   0.000000   3.141871
                    a_2     0.000000   3.141871   3.141871
                    a_3    -3.141871   3.141871   0.000000
 
                   Unit Cell Volume:      62.02904  (Ang^3)
 
                        Reciprocal-Space Vectors (Ang^-1)
                    b_1    -0.999911  -0.999911   0.999911
                    b_2     0.999911   0.999911   0.999911
                    b_3    -0.999911   0.999911  -0.999911
  
 *----------------------------------------------------------------------------*
 |   Site       Fractional Coordinate          Cartesian Coordinate (Ang)     |
 +----------------------------------------------------------------------------+
 | K    1   0.00000   0.00000   0.00000   |    0.00000   0.00000   0.00000    |
 | Cl   1   0.50000   0.50000   0.50000   |   -3.14187   3.14187   3.14187    |
 *----------------------------------------------------------------------------*
                                ------------
                                K-POINT GRID
                                ------------
  
             Grid size = 12 x 12 x 12      Total points = 1728
  
  
 *---------------------------------- MAIN ------------------------------------*
 |  Number of Wannier Functions               :                 3             |
 |  Number of Objective Wannier Functions     :                 3             |
 |  Number of input Bloch states              :                 3             |
 |  Output verbosity (1=low, 5=high)          :                 1             |
 |  Timing Level (1=low, 5=high)              :                 1             |
 |  Optimisation (0=memory, 3=speed)          :                 3             |
 |  Length Unit                               :               Ang             |
 |  Post-processing setup (write *.nnkp)      :                 F             |
 |  Using Gamma-only branch of algorithms     :                 F             |
 *----------------------------------------------------------------------------*
 *------------------------------- WANNIERISE ---------------------------------*
 |  Total number of iterations                :               500             |
 |  Number of CG steps before reset           :                 5             |
 |  Trial step length for line search         :             2.000             |
 |  Convergence tolerence                     :         0.100E-09             |
 |  Convergence window                        :                -1             |
 |  Iterations between writing output         :                 1             |
 |  Iterations between backing up to disk     :               100             |
 |  Write r^2_nm to file                      :                 F             |
 |  Write xyz WF centres to file              :                 F             |
 |  Write on-site energies <0n|H|0n> to file  :                 F             |
 |  Use guiding centre to control phases      :                 F             |
 |  Use phases for initial projections        :                 F             |
 *----------------------------------------------------------------------------*
 Time to read parameters        0.107 (sec)

 *---------------------------------- K-MESH ----------------------------------*
 +----------------------------------------------------------------------------+
 |                    Distance to Nearest-Neighbour Shells                    |
 |                    ------------------------------------                    |
 |          Shell             Distance (Ang^-1)          Multiplicity         |
 |          -----             -----------------          ------------         |
 |             1                   0.144325                      8            |
 |             2                   0.166652                      6            |
 |             3                   0.235681                     12            |
 |             4                   0.276361                     24            |
 |             5                   0.288650                      8            |
 |             6                   0.333304                      6            |
 |             7                   0.363209                     24            |
 |             8                   0.372645                     24            |
 |             9                   0.408212                     24            |
 |            10                   0.432974                     32            |
 |            11                   0.471363                     12            |
 |            12                   0.492963                     48            |
 |            13                   0.499956                     30            |
 |            14                   0.527000                     24            |
 |            15                   0.546405                     24            |
 |            16                   0.552722                     24            |
 |            17                   0.577299                      8            |
 |            18                   0.595066                     48            |
 |            19                   0.600872                     24            |
 |            20                   0.623554                     48            |
 |            21                   0.640039                     72            |
 |            22                   0.666608                      6            |
 |            23                   0.682052                     24            |
 |            24                   0.687123                     48            |
 |            25                   0.707044                     36            |
 |            26                   0.721624                     56            |
 |            27                   0.726419                     24            |
 |            28                   0.745290                     24            |
 |            29                   0.759136                     72            |
 |            30                   0.763695                     48            |
 |            31                   0.781667                     24            |
 |            32                   0.794879                     48            |
 |            33                   0.816424                     24            |
 |            34                   0.829083                     72            |
 |            35                   0.833260                     30            |
 |            36                   0.849761                     72            |
 +----------------------------------------------------------------------------+
 | The b-vectors are chosen automatically                                     |
 | The following shells are used:   1                                         |
 +----------------------------------------------------------------------------+
 |                        Shell   # Nearest-Neighbours                        |
 |                        -----   --------------------                        |
 |                          1               8                                 |
 +----------------------------------------------------------------------------+
 | Completeness relation is fully satisfied [Eq. (B1), PRB 56, 12847 (1997)]  |
 +----------------------------------------------------------------------------+
 |                  b_k Vectors (Ang^-1) and Weights (Ang^2)                  |
 |                  ----------------------------------------                  |
 |            No.         b_k(x)      b_k(y)      b_k(z)        w_b           |
 |            ---        --------------------------------     --------        |
 |             1        -0.083326    0.083326   -0.083326    18.003191        |
 |             2         0.083326    0.083326    0.083326    18.003191        |
 |             3        -0.083326   -0.083326    0.083326    18.003191        |
 |             4        -0.083326    0.083326    0.083326    18.003191        |
 |             5         0.083326   -0.083326    0.083326    18.003191        |
 |             6        -0.083326   -0.083326   -0.083326    18.003191        |
 |             7         0.083326    0.083326   -0.083326    18.003191        |
 |             8         0.083326   -0.083326   -0.083326    18.003191        |
 +----------------------------------------------------------------------------+
 |                           b_k Directions (Ang^-1)                          |
 |                           -----------------------                          |
 |            No.           x           y           z                         |
 |            ---        --------------------------------                     |
 |             1        -0.083326    0.083326   -0.083326                     |
 |             2         0.083326    0.083326    0.083326                     |
 |             3        -0.083326   -0.083326    0.083326                     |
 |             4        -0.083326    0.083326    0.083326                     |
 +----------------------------------------------------------------------------+
  
 Time to get kmesh              1.040 (sec)
 *============================================================================*
 |                              MEMORY ESTIMATE                               |
 |         Maximum RAM allocated during each phase of the calculation         |
 *============================================================================*
 |                            Wannierise:            7.00 Mb                  |
 |                          plot_wannier:            7.00 Mb                  |
 *----------------------------------------------------------------------------*
  
 Starting a new Wannier90 calculation ...


 Reading overlaps from mp-23193.mmn    :  Created on  3Jan2024 at 14:35:57

 Reading projections from mp-23193.amn :  Created on  3Jan2024 at 14:35:57  with SCDM

 Time to read overlaps          0.140 (sec)

 Writing checkpoint file mp-23193.chk... done

 
 *------------------------------- WANNIERISE ---------------------------------*
 +--------------------------------------------------------------------+<-- CONV
 | Iter  Delta Spread     RMS Gradient      Spread (Ang^2)      Time  |<-- CONV
 +--------------------------------------------------------------------+<-- CONV
 
 ------------------------------------------------------------------------------
 Initial State
  WF centre and spread    1  ( -0.000233,  0.000105,  3.142130 )     1.48952183
  WF centre and spread    2  (  3.142242,  0.000152,  0.000018 )     1.48936828
  WF centre and spread    3  ( -0.000111, -3.142177, -0.000218 )     1.48910738
  Sum of centres and spreads (  3.141898, -3.141920,  3.141930 )     4.46799750
 
      0     0.447E+01     0.0000000000        4.4679998688       0.00  <-- CONV
        O_D=      0.0098075 O_OD=      0.0204251 O_TOT=      4.4679999 <-- SPRD
 ------------------------------------------------------------------------------
 Cycle:      1
  WF centre and spread    1  ( -0.000069,  0.000034,  3.141947 )     1.48180510
  WF centre and spread    2  (  3.141979,  0.000041,  0.000000 )     1.48180739
  WF centre and spread    3  ( -0.000028, -3.141957, -0.000062 )     1.48195171
  Sum of centres and spreads (  3.141882, -3.141882,  3.141885 )     4.44556420
 
      1    -0.224E-01     0.0380130179        4.4455665733       0.01  <-- CONV
        O_D=      0.0012175 O_OD=      0.0065818 O_TOT=      4.4455666 <-- SPRD
 Delta: O_D= -0.8589983E-02 O_OD= -0.1384331E-01 O_TOT= -0.2243330E-01 <-- DLTA
 ------------------------------------------------------------------------------
 Cycle:      2
  WF centre and spread    1  ( -0.000051,  0.000026,  3.141929 )     1.48139291
  WF centre and spread    2  (  3.141951,  0.000030, -0.000001 )     1.48140100
  WF centre and spread    3  ( -0.000020, -3.141935, -0.000046 )     1.48156895
  Sum of centres and spreads (  3.141880, -3.141879,  3.141882 )     4.44436286
 
      2    -0.120E-02     0.0188024178        4.4443652300       0.01  <-- CONV
        O_D=      0.0007463 O_OD=      0.0058517 O_TOT=      4.4443652 <-- SPRD
 Delta: O_D= -0.4712198E-03 O_OD= -0.7301235E-03 O_TOT= -0.1201343E-02 <-- DLTA
 ------------------------------------------------------------------------------
 Cycle:      3
  WF centre and spread    1  ( -0.000027,  0.000013,  3.141901 )     1.48094909
  WF centre and spread    2  (  3.141914,  0.000015, -0.000000 )     1.48096545
  WF centre and spread    3  ( -0.000010, -3.141904, -0.000024 )     1.48116874
  Sum of centres and spreads (  3.141877, -3.141875,  3.141877 )     4.44308328
 
      3    -0.128E-02     0.0224730789        4.4430856499       0.02  <-- CONV
        O_D=      0.0002818 O_OD=      0.0050366 O_TOT=      4.4430856 <-- SPRD
 Delta: O_D= -0.4645069E-03 O_OD= -0.8150733E-03 O_TOT= -0.1279580E-02 <-- DLTA
 ------------------------------------------------------------------------------
 Cycle:      4
  WF centre and spread    1  ( -0.000014,  0.000007,  3.141887 )     1.48077148
  WF centre and spread    2  (  3.141894,  0.000008, -0.000000 )     1.48079099
  WF centre and spread    3  ( -0.000005, -3.141889, -0.000013 )     1.48100507
  Sum of centres and spreads (  3.141875, -3.141873,  3.141874 )     4.44256754
 
      4    -0.516E-03     0.0157943908        4.4425699128       0.03  <-- CONV
        O_D=      0.0001246 O_OD=      0.0046781 O_TOT=      4.4425699 <-- SPRD
 Delta: O_D= -0.1572145E-03 O_OD= -0.3585226E-03 O_TOT= -0.5157371E-03 <-- DLTA
 ------------------------------------------------------------------------------
 Cycle:      5
  WF centre and spread    1  ( -0.000006,  0.000003,  3.141878 )     1.48067552
  WF centre and spread    2  (  3.141881,  0.000003, -0.000000 )     1.48069549
  WF centre and spread    3  ( -0.000002, -3.141878, -0.000005 )     1.48091499
  Sum of centres and spreads (  3.141873, -3.141872,  3.141873 )     4.44228600
 
      5    -0.282E-03     0.0110516919        4.4422883741       0.03  <-- CONV
        O_D=      0.0000433 O_OD=      0.0044778 O_TOT=      4.4422884 <-- SPRD
 Delta: O_D= -0.8125479E-04 O_OD= -0.2002839E-03 O_TOT= -0.2815387E-03 <-- DLTA
 ------------------------------------------------------------------------------
 Cycle:      6
  WF centre and spread    1  ( -0.000002,  0.000001,  3.141874 )     1.48064122
  WF centre and spread    2  (  3.141875,  0.000001, -0.000000 )     1.48066107
  WF centre and spread    3  ( -0.000000, -3.141874, -0.000002 )     1.48088278
  Sum of centres and spreads (  3.141873, -3.141871,  3.141872 )     4.44218507
 
      6    -0.101E-03     0.0075569651        4.4421874413       0.04  <-- CONV
        O_D=      0.0000123 O_OD=      0.0044078 O_TOT=      4.4421874 <-- SPRD
 Delta: O_D= -0.3097443E-04 O_OD= -0.6995831E-04 O_TOT= -0.1009327E-03 <-- DLTA
 ------------------------------------------------------------------------------
 Cycle:      7
  WF centre and spread    1  ( -0.000002,  0.000001,  3.141874 )     1.48063393
  WF centre and spread    2  (  3.141875,  0.000001, -0.000000 )     1.48065378
  WF centre and spread    3  ( -0.000000, -3.141874, -0.000002 )     1.48087585
  Sum of centres and spreads (  3.141873, -3.141871,  3.141872 )     4.44216356
 
      7    -0.215E-04     0.0038832466        4.4421659278       0.05  <-- CONV
        O_D=      0.0000055 O_OD=      0.0043931 O_TOT=      4.4421659 <-- SPRD
 Delta: O_D= -0.6834438E-05 O_OD= -0.1467912E-04 O_TOT= -0.2151355E-04 <-- DLTA
 ------------------------------------------------------------------------------
 Cycle:      8
  WF centre and spread    1  ( -0.000001,  0.000001,  3.141874 )     1.48063011
  WF centre and spread    2  (  3.141874,  0.000001, -0.000000 )     1.48064991
  WF centre and spread    3  ( -0.000000, -3.141873, -0.000002 )     1.48087209
  Sum of centres and spreads (  3.141873, -3.141871,  3.141872 )     4.44215211
 
      8    -0.114E-04     0.0023868476        4.4421544795       0.05  <-- CONV
        O_D=      0.0000018 O_OD=      0.0043854 O_TOT=      4.4421545 <-- SPRD
 Delta: O_D= -0.3747478E-05 O_OD= -0.7700843E-05 O_TOT= -0.1144832E-04 <-- DLTA
 ------------------------------------------------------------------------------
 Cycle:      9
  WF centre and spread    1  ( -0.000001,  0.000001,  3.141873 )     1.48062899
  WF centre and spread    2  (  3.141874,  0.000001, -0.000000 )     1.48064880
  WF centre and spread    3  ( -0.000000, -3.141873, -0.000001 )     1.48087100
  Sum of centres and spreads (  3.141873, -3.141871,  3.141872 )     4.44214879
 
      9    -0.332E-05     0.0013559540        4.4421511572       0.06  <-- CONV
        O_D=      0.0000006 O_OD=      0.0043832 O_TOT=      4.4421512 <-- SPRD
 Delta: O_D= -0.1115921E-05 O_OD= -0.2206341E-05 O_TOT= -0.3322262E-05 <-- DLTA
 ------------------------------------------------------------------------------
 Cycle:     10
  WF centre and spread    1  ( -0.000001,  0.000001,  3.141873 )     1.48062852
  WF centre and spread    2  (  3.141873,  0.000001, -0.000000 )     1.48064833
  WF centre and spread    3  ( -0.000000, -3.141873, -0.000001 )     1.48087054
  Sum of centres and spreads (  3.141872, -3.141871,  3.141871 )     4.44214739
 
     10    -0.140E-05     0.0008092814        4.4421497566       0.07  <-- CONV
        O_D=      0.0000002 O_OD=      0.0043822 O_TOT=      4.4421498 <-- SPRD
 Delta: O_D= -0.4111407E-06 O_OD= -0.9894913E-06 O_TOT= -0.1400632E-05 <-- DLTA
 ------------------------------------------------------------------------------
 Cycle:     11
  WF centre and spread    1  ( -0.000001,  0.000001,  3.141873 )     1.48062835
  WF centre and spread    2  (  3.141873,  0.000001, -0.000000 )     1.48064816
  WF centre and spread    3  (  0.000000, -3.141872, -0.000001 )     1.48087038
  Sum of centres and spreads (  3.141872, -3.141871,  3.141871 )     4.44214688
 
     11    -0.508E-06     0.0005344952        4.4421492481       0.08  <-- CONV
        O_D=      0.0000001 O_OD=      0.0043818 O_TOT=      4.4421492 <-- SPRD
 Delta: O_D= -0.1200638E-06 O_OD= -0.3883656E-06 O_TOT= -0.5084295E-06 <-- DLTA
 ------------------------------------------------------------------------------
 Cycle:     12
  WF centre and spread    1  ( -0.000000,  0.000001,  3.141872 )     1.48062825
  WF centre and spread    2  (  3.141873,  0.000001, -0.000000 )     1.48064805
  WF centre and spread    3  (  0.000000, -3.141872, -0.000001 )     1.48087030
  Sum of centres and spreads (  3.141872, -3.141871,  3.141871 )     4.44214661
 
     12    -0.272E-06     0.0003139832        4.4421489760       0.08  <-- CONV
        O_D=      0.0000001 O_OD=      0.0043816 O_TOT=      4.4421490 <-- SPRD
 Delta: O_D= -0.4679564E-07 O_OD= -0.2252877E-06 O_TOT= -0.2720834E-06 <-- DLTA
 ------------------------------------------------------------------------------
 Cycle:     13
  WF centre and spread    1  ( -0.000000,  0.000001,  3.141872 )     1.48062822
  WF centre and spread    2  (  3.141873,  0.000001, -0.000000 )     1.48064802
  WF centre and spread    3  (  0.000000, -3.141872, -0.000001 )     1.48087028
  Sum of centres and spreads (  3.141872, -3.141871,  3.141871 )     4.44214651
 
     13    -0.951E-07     0.0002633820        4.4421488809       0.09  <-- CONV
        O_D=      0.0000000 O_OD=      0.0043816 O_TOT=      4.4421489 <-- SPRD
 Delta: O_D= -0.2540294E-07 O_OD= -0.6970551E-07 O_TOT= -0.9510845E-07 <-- DLTA
 ------------------------------------------------------------------------------
 Cycle:     14
  WF centre and spread    1  ( -0.000000,  0.000000,  3.141872 )     1.48062818
  WF centre and spread    2  (  3.141872,  0.000000, -0.000000 )     1.48064797
  WF centre and spread    3  (  0.000000, -3.141872, -0.000001 )     1.48087026
  Sum of centres and spreads (  3.141872, -3.141871,  3.141871 )     4.44214642
 
     14    -0.894E-07     0.0001719532        4.4421487915       0.10  <-- CONV
        O_D=      0.0000000 O_OD=      0.0043815 O_TOT=      4.4421488 <-- SPRD
 Delta: O_D= -0.1391848E-07 O_OD= -0.7552038E-07 O_TOT= -0.8943886E-07 <-- DLTA
 ------------------------------------------------------------------------------
 Cycle:     15
  WF centre and spread    1  (  0.000000,  0.000000,  3.141872 )     1.48062815
  WF centre and spread    2  (  3.141872,  0.000000, -0.000000 )     1.48064794
  WF centre and spread    3  (  0.000000, -3.141872, -0.000000 )     1.48087026
  Sum of centres and spreads (  3.141872, -3.141871,  3.141871 )     4.44214636
 
     15    -0.672E-07     0.0001702630        4.4421487243       0.10  <-- CONV
        O_D=      0.0000000 O_OD=      0.0043814 O_TOT=      4.4421487 <-- SPRD
 Delta: O_D= -0.8822462E-08 O_OD= -0.5840287E-07 O_TOT= -0.6722534E-07 <-- DLTA
 ------------------------------------------------------------------------------
 Cycle:     16
  WF centre and spread    1  (  0.000000,  0.000000,  3.141872 )     1.48062812
  WF centre and spread    2  (  3.141872,  0.000000, -0.000000 )     1.48064791
  WF centre and spread    3  (  0.000000, -3.141871, -0.000000 )     1.48087026
  Sum of centres and spreads (  3.141872, -3.141871,  3.141871 )     4.44214630
 
     16    -0.590E-07     0.0001421485        4.4421486653       0.11  <-- CONV
        O_D=      0.0000000 O_OD=      0.0043814 O_TOT=      4.4421487 <-- SPRD
 Delta: O_D= -0.6089670E-08 O_OD= -0.5293493E-07 O_TOT= -0.5902460E-07 <-- DLTA
 ------------------------------------------------------------------------------
 Cycle:     17
  WF centre and spread    1  (  0.000000,  0.000000,  3.141872 )     1.48062810
  WF centre and spread    2  (  3.141871,  0.000000, -0.000000 )     1.48064790
  WF centre and spread    3  (  0.000000, -3.141871, -0.000000 )     1.48087026
  Sum of centres and spreads (  3.141872, -3.141871,  3.141871 )     4.44214626
 
     17    -0.400E-07     0.0001334075        4.4421486253       0.12  <-- CONV
        O_D=      0.0000000 O_OD=      0.0043813 O_TOT=      4.4421486 <-- SPRD
 Delta: O_D= -0.5332893E-08 O_OD= -0.3465901E-07 O_TOT= -0.3999190E-07 <-- DLTA
 ------------------------------------------------------------------------------
 Cycle:     18
  WF centre and spread    1  (  0.000001,  0.000000,  3.141871 )     1.48062808
  WF centre and spread    2  (  3.141871,  0.000000, -0.000000 )     1.48064788
  WF centre and spread    3  (  0.000000, -3.141871,  0.000000 )     1.48087026
  Sum of centres and spreads (  3.141872, -3.141871,  3.141871 )     4.44214623
 
     18    -0.261E-07     0.0000987085        4.4421485992       0.12  <-- CONV
        O_D=      0.0000000 O_OD=      0.0043813 O_TOT=      4.4421486 <-- SPRD
 Delta: O_D= -0.2281836E-08 O_OD= -0.2382400E-07 O_TOT= -0.2610584E-07 <-- DLTA
 ------------------------------------------------------------------------------
 Cycle:     19
  WF centre and spread    1  (  0.000001,  0.000000,  3.141871 )     1.48062808
  WF centre and spread    2  (  3.141871,  0.000000, -0.000000 )     1.48064788
  WF centre and spread    3  (  0.000000, -3.141871,  0.000000 )     1.48087026
  Sum of centres and spreads (  3.141872, -3.141871,  3.141871 )     4.44214622
 
     19    -0.141E-07     0.0001026360        4.4421485851       0.13  <-- CONV
        O_D=      0.0000000 O_OD=      0.0043813 O_TOT=      4.4421486 <-- SPRD
 Delta: O_D= -0.3277509E-08 O_OD= -0.1077396E-07 O_TOT= -0.1405146E-07 <-- DLTA
 ------------------------------------------------------------------------------
 Cycle:     20
  WF centre and spread    1  (  0.000001,  0.000000,  3.141871 )     1.48062807
  WF centre and spread    2  (  3.141871,  0.000000, -0.000000 )     1.48064787
  WF centre and spread    3  (  0.000000, -3.141871,  0.000000 )     1.48087026
  Sum of centres and spreads (  3.141872, -3.141871,  3.141871 )     4.44214620
 
     20    -0.142E-07     0.0000638473        4.4421485709       0.14  <-- CONV
        O_D=      0.0000000 O_OD=      0.0043813 O_TOT=      4.4421486 <-- SPRD
 Delta: O_D=  0.2731804E-10 O_OD= -0.1421682E-07 O_TOT= -0.1418951E-07 <-- DLTA
 ------------------------------------------------------------------------------
 Cycle:     21
  WF centre and spread    1  (  0.000000,  0.000000,  3.141871 )     1.48062806
  WF centre and spread    2  (  3.141871,  0.000000, -0.000000 )     1.48064786
  WF centre and spread    3  (  0.000000, -3.141871, -0.000000 )     1.48087026
  Sum of centres and spreads (  3.141872, -3.141871,  3.141871 )     4.44214618
 
     21    -0.206E-07     0.0000735950        4.4421485503       0.14  <-- CONV
        O_D=      0.0000000 O_OD=      0.0043813 O_TOT=      4.4421486 <-- SPRD
 Delta: O_D=  0.5763580E-08 O_OD= -0.2637021E-07 O_TOT= -0.2060663E-07 <-- DLTA
 ------------------------------------------------------------------------------
 Cycle:     22
  WF centre and spread    1  (  0.000000,  0.000000,  3.141872 )     1.48062804
  WF centre and spread    2  (  3.141871,  0.000000, -0.000000 )     1.48064784
  WF centre and spread    3  (  0.000000, -3.141871, -0.000000 )     1.48087027
  Sum of centres and spreads (  3.141872, -3.141871,  3.141871 )     4.44214615
 
     22    -0.313E-07     0.0001187849        4.4421485190       0.15  <-- CONV
        O_D=      0.0000000 O_OD=      0.0043812 O_TOT=      4.4421485 <-- SPRD
 Delta: O_D=  0.7540584E-08 O_OD= -0.3884383E-07 O_TOT= -0.3130325E-07 <-- DLTA
 ------------------------------------------------------------------------------
 Cycle:     23
  WF centre and spread    1  (  0.000000,  0.000000,  3.141872 )     1.48062801
  WF centre and spread    2  (  3.141872,  0.000000, -0.000000 )     1.48064781
  WF centre and spread    3  (  0.000000, -3.141871, -0.000000 )     1.48087027
  Sum of centres and spreads (  3.141872, -3.141871,  3.141871 )     4.44214610
 
     23    -0.542E-07     0.0001338720        4.4421484648       0.16  <-- CONV
        O_D=      0.0000000 O_OD=      0.0043812 O_TOT=      4.4421485 <-- SPRD
 Delta: O_D=  0.6203240E-08 O_OD= -0.6041320E-07 O_TOT= -0.5420996E-07 <-- DLTA
 ------------------------------------------------------------------------------
 Cycle:     24
  WF centre and spread    1  (  0.000000,  0.000000,  3.141872 )     1.48062797
  WF centre and spread    2  (  3.141872,  0.000000, -0.000000 )     1.48064778
  WF centre and spread    3  (  0.000000, -3.141871, -0.000000 )     1.48087027
  Sum of centres and spreads (  3.141872, -3.141871,  3.141871 )     4.44214603
 
     24    -0.698E-07     0.0001496525        4.4421483950       0.16  <-- CONV
        O_D=      0.0000000 O_OD=      0.0043811 O_TOT=      4.4421484 <-- SPRD
 Delta: O_D=  0.1201108E-07 O_OD= -0.8181724E-07 O_TOT= -0.6980616E-07 <-- DLTA
 ------------------------------------------------------------------------------
 Cycle:     25
  WF centre and spread    1  (  0.000000,  0.000000,  3.141872 )     1.48062795
  WF centre and spread    2  (  3.141872,  0.000000, -0.000000 )     1.48064776
  WF centre and spread    3  (  0.000000, -3.141871, -0.000000 )     1.48087025
  Sum of centres and spreads (  3.141872, -3.141871,  3.141871 )     4.44214596
 
     25    -0.664E-07     0.0001980218        4.4421483286       0.17  <-- CONV
        O_D=      0.0000000 O_OD=      0.0043810 O_TOT=      4.4421483 <-- SPRD
 Delta: O_D= -0.1337869E-07 O_OD= -0.5299165E-07 O_TOT= -0.6637034E-07 <-- DLTA
 ------------------------------------------------------------------------------
 Cycle:     26
  WF centre and spread    1  (  0.000000,  0.000000,  3.141872 )     1.48062793
  WF centre and spread    2  (  3.141872,  0.000000, -0.000000 )     1.48064774
  WF centre and spread    3  (  0.000000, -3.141871, -0.000000 )     1.48087023
  Sum of centres and spreads (  3.141872, -3.141871,  3.141871 )     4.44214590
 
     26    -0.600E-07     0.0001537846        4.4421482686       0.18  <-- CONV
        O_D=      0.0000000 O_OD=      0.0043810 O_TOT=      4.4421483 <-- SPRD
 Delta: O_D= -0.8208158E-08 O_OD= -0.5183147E-07 O_TOT= -0.6003962E-07 <-- DLTA
 ------------------------------------------------------------------------------
 Cycle:     27
  WF centre and spread    1  (  0.000000,  0.000000,  3.141872 )     1.48062792
  WF centre and spread    2  (  3.141872,  0.000000, -0.000000 )     1.48064773
  WF centre and spread    3  (  0.000000, -3.141871, -0.000000 )     1.48087022
  Sum of centres and spreads (  3.141872, -3.141871,  3.141871 )     4.44214586
 
     27    -0.415E-07     0.0001337559        4.4421482271       0.19  <-- CONV
        O_D=      0.0000000 O_OD=      0.0043809 O_TOT=      4.4421482 <-- SPRD
 Delta: O_D= -0.6053695E-08 O_OD= -0.3546158E-07 O_TOT= -0.4151527E-07 <-- DLTA
 ------------------------------------------------------------------------------
 Cycle:     28
  WF centre and spread    1  (  0.000000,  0.000000,  3.141872 )     1.48062791
  WF centre and spread    2  (  3.141871,  0.000000, -0.000000 )     1.48064772
  WF centre and spread    3  (  0.000000, -3.141871, -0.000000 )     1.48087021
  Sum of centres and spreads (  3.141872, -3.141871,  3.141871 )     4.44214583
 
     28    -0.271E-07     0.0001003662        4.4421481999       0.19  <-- CONV
        O_D=      0.0000000 O_OD=      0.0043809 O_TOT=      4.4421482 <-- SPRD
 Delta: O_D= -0.2240589E-08 O_OD= -0.2490842E-07 O_TOT= -0.2714901E-07 <-- DLTA
 ------------------------------------------------------------------------------
 Cycle:     29
  WF centre and spread    1  (  0.000000,  0.000000,  3.141872 )     1.48062790
  WF centre and spread    2  (  3.141871,  0.000000, -0.000000 )     1.48064771
  WF centre and spread    3  (  0.000000, -3.141871, -0.000000 )     1.48087020
  Sum of centres and spreads (  3.141872, -3.141871,  3.141871 )     4.44214581
 
     29    -0.170E-07     0.0000923063        4.4421481830       0.20  <-- CONV
        O_D=      0.0000000 O_OD=      0.0043809 O_TOT=      4.4421482 <-- SPRD
 Delta: O_D= -0.1114608E-08 O_OD= -0.1584722E-07 O_TOT= -0.1696183E-07 <-- DLTA
 ------------------------------------------------------------------------------
 Cycle:     30
  WF centre and spread    1  (  0.000000,  0.000000,  3.141871 )     1.48062789
  WF centre and spread    2  (  3.141871,  0.000000, -0.000000 )     1.48064770
  WF centre and spread    3  (  0.000000, -3.141871, -0.000000 )     1.48087021
  Sum of centres and spreads (  3.141872, -3.141871,  3.141871 )     4.44214579
 
     30    -0.203E-07     0.0000626173        4.4421481627       0.21  <-- CONV
        O_D=      0.0000000 O_OD=      0.0043809 O_TOT=      4.4421482 <-- SPRD
 Delta: O_D=  0.3509506E-08 O_OD= -0.2377457E-07 O_TOT= -0.2026507E-07 <-- DLTA
 ------------------------------------------------------------------------------
 Cycle:     31
  WF centre and spread    1  (  0.000000,  0.000000,  3.141871 )     1.48062788
  WF centre and spread    2  (  3.141871,  0.000000, -0.000000 )     1.48064769
  WF centre and spread    3  (  0.000000, -3.141871, -0.000000 )     1.48087020
  Sum of centres and spreads (  3.141872, -3.141871,  3.141871 )     4.44214577
 
     31    -0.186E-07     0.0001325916        4.4421481440       0.21  <-- CONV
        O_D=      0.0000000 O_OD=      0.0043809 O_TOT=      4.4421481 <-- SPRD
 Delta: O_D= -0.4711465E-08 O_OD= -0.1393309E-07 O_TOT= -0.1864456E-07 <-- DLTA
 ------------------------------------------------------------------------------
 Cycle:     32
  WF centre and spread    1  (  0.000000,  0.000000,  3.141871 )     1.48062787
  WF centre and spread    2  (  3.141871,  0.000000, -0.000000 )     1.48064769
  WF centre and spread    3  (  0.000000, -3.141871, -0.000000 )     1.48087020
  Sum of centres and spreads (  3.141872, -3.141871,  3.141871 )     4.44214576
 
     32    -0.127E-07     0.0000588917        4.4421481313       0.22  <-- CONV
        O_D=      0.0000000 O_OD=      0.0043808 O_TOT=      4.4421481 <-- SPRD
 Delta: O_D=  0.3204604E-10 O_OD= -0.1275661E-07 O_TOT= -0.1272456E-07 <-- DLTA
 ------------------------------------------------------------------------------
 Cycle:     33
  WF centre and spread    1  (  0.000000,  0.000000,  3.141871 )     1.48062785
  WF centre and spread    2  (  3.141871,  0.000000, -0.000000 )     1.48064767
  WF centre and spread    3  (  0.000000, -3.141871, -0.000000 )     1.48087021
  Sum of centres and spreads (  3.141872, -3.141871,  3.141871 )     4.44214574
 
     33    -0.266E-07     0.0000673965        4.4421481047       0.23  <-- CONV
        O_D=      0.0000000 O_OD=      0.0043808 O_TOT=      4.4421481 <-- SPRD
 Delta: O_D=  0.6037468E-08 O_OD= -0.3265613E-07 O_TOT= -0.2661866E-07 <-- DLTA
 ------------------------------------------------------------------------------
 Cycle:     34
  WF centre and spread    1  (  0.000000,  0.000000,  3.141871 )     1.48062785
  WF centre and spread    2  (  3.141871,  0.000000, -0.000000 )     1.48064766
  WF centre and spread    3  (  0.000000, -3.141871, -0.000000 )     1.48087021
  Sum of centres and spreads (  3.141872, -3.141871,  3.141871 )     4.44214571
 
     34    -0.226E-07     0.0001391081        4.4421480821       0.23  <-- CONV
        O_D=      0.0000000 O_OD=      0.0043808 O_TOT=      4.4421481 <-- SPRD
 Delta: O_D= -0.5837964E-08 O_OD= -0.1673313E-07 O_TOT= -0.2257110E-07 <-- DLTA
 ------------------------------------------------------------------------------
 Cycle:     35
  WF centre and spread    1  (  0.000000,  0.000000,  3.141871 )     1.48062784
  WF centre and spread    2  (  3.141871,  0.000000, -0.000000 )     1.48064766
  WF centre and spread    3  (  0.000000, -3.141871, -0.000000 )     1.48087020
  Sum of centres and spreads (  3.141872, -3.141871,  3.141871 )     4.44214570
 
     35    -0.134E-07     0.0000638841        4.4421480687       0.24  <-- CONV
        O_D=      0.0000000 O_OD=      0.0043808 O_TOT=      4.4421481 <-- SPRD
 Delta: O_D=  0.5949437E-09 O_OD= -0.1401657E-07 O_TOT= -0.1342162E-07 <-- DLTA
 ------------------------------------------------------------------------------
 Cycle:     36
  WF centre and spread    1  (  0.000000,  0.000000,  3.141871 )     1.48062783
  WF centre and spread    2  (  3.141871,  0.000000, -0.000000 )     1.48064765
  WF centre and spread    3  (  0.000000, -3.141871, -0.000000 )     1.48087020
  Sum of centres and spreads (  3.141872, -3.141871,  3.141871 )     4.44214569
 
     36    -0.116E-07     0.0000707541        4.4421480571       0.25  <-- CONV
        O_D=      0.0000000 O_OD=      0.0043808 O_TOT=      4.4421481 <-- SPRD
 Delta: O_D=  0.1901995E-08 O_OD= -0.1353308E-07 O_TOT= -0.1163108E-07 <-- DLTA
 ------------------------------------------------------------------------------
 Cycle:     37
  WF centre and spread    1  (  0.000000,  0.000000,  3.141871 )     1.48062781
  WF centre and spread    2  (  3.141871,  0.000000, -0.000000 )     1.48064763
  WF centre and spread    3  (  0.000000, -3.141871, -0.000000 )     1.48087019
  Sum of centres and spreads (  3.141872, -3.141871,  3.141871 )     4.44214562
 
     37    -0.641E-07     0.0000921540        4.4421479930       0.25  <-- CONV
        O_D=      0.0000000 O_OD=      0.0043807 O_TOT=      4.4421480 <-- SPRD
 Delta: O_D=  0.9760358E-08 O_OD= -0.7382753E-07 O_TOT= -0.6406717E-07 <-- DLTA
 ------------------------------------------------------------------------------
 Cycle:     38
  WF centre and spread    1  (  0.000000,  0.000000,  3.141872 )     1.48062776
  WF centre and spread    2  (  3.141871,  0.000000, -0.000000 )     1.48064758
  WF centre and spread    3  (  0.000000, -3.141871, -0.000000 )     1.48087018
  Sum of centres and spreads (  3.141872, -3.141871,  3.141871 )     4.44214553
 
     38    -0.976E-07     0.0001563596        4.4421478955       0.26  <-- CONV
        O_D=      0.0000000 O_OD=      0.0043806 O_TOT=      4.4421479 <-- SPRD
 Delta: O_D=  0.1134765E-07 O_OD= -0.1089013E-06 O_TOT= -0.9755360E-07 <-- DLTA
 ------------------------------------------------------------------------------
 Cycle:     39
  WF centre and spread    1  (  0.000000,  0.000000,  3.141872 )     1.48062770
  WF centre and spread    2  (  3.141871,  0.000000, -0.000000 )     1.48064752
  WF centre and spread    3  (  0.000000, -3.141871, -0.000000 )     1.48087019
  Sum of centres and spreads (  3.141872, -3.141871,  3.141871 )     4.44214541
 
     39    -0.115E-06     0.0001954423        4.4421477800       0.27  <-- CONV
        O_D=      0.0000000 O_OD=      0.0043805 O_TOT=      4.4421478 <-- SPRD
 Delta: O_D=  0.1504062E-07 O_OD= -0.1304842E-06 O_TOT= -0.1154436E-06 <-- DLTA
 ------------------------------------------------------------------------------
 Cycle:     40
  WF centre and spread    1  (  0.000000,  0.000000,  3.141872 )     1.48062767
  WF centre and spread    2  (  3.141871,  0.000000, -0.000000 )     1.48064750
  WF centre and spread    3  (  0.000000, -3.141871, -0.000000 )     1.48087016
  Sum of centres and spreads (  3.141872, -3.141871,  3.141871 )     4.44214533
 
     40    -0.837E-07     0.0002137274        4.4421476963       0.27  <-- CONV
        O_D=      0.0000000 O_OD=      0.0043804 O_TOT=      4.4421477 <-- SPRD
 Delta: O_D= -0.1394589E-07 O_OD= -0.6978791E-07 O_TOT= -0.8373381E-07 <-- DLTA
 ------------------------------------------------------------------------------
 Cycle:     41
  WF centre and spread    1  (  0.000000,  0.000000,  3.141871 )     1.48062763
  WF centre and spread    2  (  3.141871,  0.000000, -0.000000 )     1.48064746
  WF centre and spread    3  (  0.000000, -3.141871, -0.000000 )     1.48087014
  Sum of centres and spreads (  3.141872, -3.141871,  3.141871 )     4.44214523
 
     41    -0.955E-07     0.0001840946        4.4421476008       0.28  <-- CONV
        O_D=      0.0000000 O_OD=      0.0043803 O_TOT=      4.4421476 <-- SPRD
 Delta: O_D= -0.1187070E-07 O_OD= -0.8360626E-07 O_TOT= -0.9547697E-07 <-- DLTA
 ------------------------------------------------------------------------------
 Cycle:     42
  WF centre and spread    1  (  0.000000,  0.000000,  3.141871 )     1.48062760
  WF centre and spread    2  (  3.141871,  0.000000, -0.000000 )     1.48064743
  WF centre and spread    3  (  0.000000, -3.141871, -0.000000 )     1.48087014
  Sum of centres and spreads (  3.141872, -3.141871,  3.141871 )     4.44214517
 
     42    -0.639E-07     0.0001507626        4.4421475369       0.29  <-- CONV
        O_D=      0.0000000 O_OD=      0.0043802 O_TOT=      4.4421475 <-- SPRD
 Delta: O_D= -0.9005282E-08 O_OD= -0.5494210E-07 O_TOT= -0.6394738E-07 <-- DLTA
 ------------------------------------------------------------------------------
 Cycle:     43
  WF centre and spread    1  (  0.000000,  0.000000,  3.141871 )     1.48062759
  WF centre and spread    2  (  3.141871,  0.000000, -0.000000 )     1.48064742
  WF centre and spread    3  (  0.000000, -3.141871, -0.000000 )     1.48087014
  Sum of centres and spreads (  3.141872, -3.141871,  3.141871 )     4.44214515
 
     43    -0.198E-07     0.0001072547        4.4421475171       0.29  <-- CONV
        O_D=      0.0000000 O_OD=      0.0043802 O_TOT=      4.4421475 <-- SPRD
 Delta: O_D= -0.2757184E-08 O_OD= -0.1704359E-07 O_TOT= -0.1980077E-07 <-- DLTA
 ------------------------------------------------------------------------------
 Cycle:     44
  WF centre and spread    1  (  0.000000,  0.000000,  3.141871 )     1.48062758
  WF centre and spread    2  (  3.141871,  0.000000, -0.000000 )     1.48064742
  WF centre and spread    3  (  0.000000, -3.141871, -0.000000 )     1.48087014
  Sum of centres and spreads (  3.141872, -3.141871,  3.141871 )     4.44214513
 
     44    -0.146E-07     0.0000775097        4.4421475024       0.30  <-- CONV
        O_D=      0.0000000 O_OD=      0.0043802 O_TOT=      4.4421475 <-- SPRD
 Delta: O_D= -0.1204444E-08 O_OD= -0.1339972E-07 O_TOT= -0.1460417E-07 <-- DLTA
 ------------------------------------------------------------------------------
 Cycle:     45
  WF centre and spread    1  (  0.000000,  0.000000,  3.141871 )     1.48062757
  WF centre and spread    2  (  3.141871,  0.000000, -0.000000 )     1.48064741
  WF centre and spread    3  (  0.000000, -3.141871, -0.000000 )     1.48087014
  Sum of centres and spreads (  3.141872, -3.141871,  3.141871 )     4.44214512
 
     45    -0.151E-07     0.0000577897        4.4421474873       0.31  <-- CONV
        O_D=      0.0000000 O_OD=      0.0043802 O_TOT=      4.4421475 <-- SPRD
 Delta: O_D=  0.6795393E-09 O_OD= -0.1580984E-07 O_TOT= -0.1513030E-07 <-- DLTA
 ------------------------------------------------------------------------------
 Cycle:     46
  WF centre and spread    1  (  0.000000,  0.000000,  3.141871 )     1.48062757
  WF centre and spread    2  (  3.141871,  0.000000, -0.000000 )     1.48064741
  WF centre and spread    3  (  0.000000, -3.141871, -0.000000 )     1.48087013
  Sum of centres and spreads (  3.141872, -3.141871,  3.141871 )     4.44214511
 
     46    -0.984E-08     0.0000744289        4.4421474775       0.31  <-- CONV
        O_D=      0.0000000 O_OD=      0.0043802 O_TOT=      4.4421475 <-- SPRD
 Delta: O_D= -0.6009485E-09 O_OD= -0.9243640E-08 O_TOT= -0.9844588E-08 <-- DLTA
 ------------------------------------------------------------------------------
 Cycle:     47
  WF centre and spread    1  (  0.000000,  0.000000,  3.141871 )     1.48062756
  WF centre and spread    2  (  3.141871,  0.000000, -0.000000 )     1.48064740
  WF centre and spread    3  (  0.000000, -3.141871, -0.000000 )     1.48087013
  Sum of centres and spreads (  3.141872, -3.141871,  3.141871 )     4.44214509
 
     47    -0.144E-07     0.0000684818        4.4421474631       0.32  <-- CONV
        O_D=      0.0000000 O_OD=      0.0043802 O_TOT=      4.4421475 <-- SPRD
 Delta: O_D=  0.2483392E-08 O_OD= -0.1685658E-07 O_TOT= -0.1437319E-07 <-- DLTA
 ------------------------------------------------------------------------------
 Cycle:     48
  WF centre and spread    1  (  0.000000,  0.000000,  3.141871 )     1.48062755
  WF centre and spread    2  (  3.141871,  0.000000, -0.000000 )     1.48064739
  WF centre and spread    3  (  0.000000, -3.141871, -0.000000 )     1.48087012
  Sum of centres and spreads (  3.141872, -3.141871,  3.141871 )     4.44214507
 
     48    -0.237E-07     0.0000910092        4.4421474394       0.33  <-- CONV
        O_D=      0.0000000 O_OD=      0.0043801 O_TOT=      4.4421474 <-- SPRD
 Delta: O_D=  0.1813576E-08 O_OD= -0.2555545E-07 O_TOT= -0.2374187E-07 <-- DLTA
 ------------------------------------------------------------------------------
 Cycle:     49
  WF centre and spread    1  (  0.000000,  0.000000,  3.141871 )     1.48062752
  WF centre and spread    2  (  3.141871,  0.000000, -0.000000 )     1.48064737
  WF centre and spread    3  (  0.000000, -3.141871, -0.000000 )     1.48087012
  Sum of centres and spreads (  3.141872, -3.141871,  3.141871 )     4.44214500
 
     49    -0.658E-07     0.0001154269        4.4421473736       0.34  <-- CONV
        O_D=      0.0000000 O_OD=      0.0043801 O_TOT=      4.4421474 <-- SPRD
 Delta: O_D=  0.4636541E-08 O_OD= -0.7040236E-07 O_TOT= -0.6576582E-07 <-- DLTA
 ------------------------------------------------------------------------------
 Cycle:     50
  WF centre and spread    1  (  0.000000,  0.000000,  3.141871 )     1.48062748
  WF centre and spread    2  (  3.141871,  0.000000, -0.000000 )     1.48064732
  WF centre and spread    3  (  0.000000, -3.141871, -0.000000 )     1.48087011
  Sum of centres and spreads (  3.141872, -3.141871,  3.141871 )     4.44214492
 
     50    -0.864E-07     0.0001387381        4.4421472872       0.34  <-- CONV
        O_D=      0.0000000 O_OD=      0.0043800 O_TOT=      4.4421473 <-- SPRD
 Delta: O_D=  0.7835436E-08 O_OD= -0.9425141E-07 O_TOT= -0.8641597E-07 <-- DLTA
 ------------------------------------------------------------------------------
 Cycle:     51
  WF centre and spread    1  (  0.000000,  0.000000,  3.141871 )     1.48062743
  WF centre and spread    2  (  3.141871,  0.000000, -0.000000 )     1.48064728
  WF centre and spread    3  (  0.000000, -3.141871, -0.000000 )     1.48087011
  Sum of centres and spreads (  3.141872, -3.141871,  3.141871 )     4.44214482
 
     51    -0.943E-07     0.0001634283        4.4421471928       0.35  <-- CONV
        O_D=      0.0000000 O_OD=      0.0043799 O_TOT=      4.4421472 <-- SPRD
 Delta: O_D=  0.1848766E-07 O_OD= -0.1128177E-06 O_TOT= -0.9433007E-07 <-- DLTA
 ------------------------------------------------------------------------------
 Cycle:     52
  WF centre and spread    1  (  0.000000,  0.000000,  3.141871 )     1.48062741
  WF centre and spread    2  (  3.141871,  0.000000, -0.000000 )     1.48064725
  WF centre and spread    3  (  0.000000, -3.141871, -0.000000 )     1.48087009
  Sum of centres and spreads (  3.141872, -3.141871,  3.141871 )     4.44214475
 
     52    -0.762E-07     0.0002460188        4.4421471166       0.36  <-- CONV
        O_D=      0.0000000 O_OD=      0.0043798 O_TOT=      4.4421471 <-- SPRD
 Delta: O_D= -0.2067901E-07 O_OD= -0.5552691E-07 O_TOT= -0.7620592E-07 <-- DLTA
 ------------------------------------------------------------------------------
 Cycle:     53
  WF centre and spread    1  (  0.000000,  0.000000,  3.141871 )     1.48062738
  WF centre and spread    2  (  3.141871,  0.000000, -0.000000 )     1.48064723
  WF centre and spread    3  (  0.000000, -3.141871, -0.000000 )     1.48087008
  Sum of centres and spreads (  3.141872, -3.141871,  3.141871 )     4.44214469
 
     53    -0.550E-07     0.0001465902        4.4421470616       0.36  <-- CONV
        O_D=      0.0000000 O_OD=      0.0043798 O_TOT=      4.4421471 <-- SPRD
 Delta: O_D= -0.8285152E-08 O_OD= -0.4671291E-07 O_TOT= -0.5499806E-07 <-- DLTA
 ------------------------------------------------------------------------------
 Cycle:     54
  WF centre and spread    1  (  0.000000,  0.000000,  3.141871 )     1.48062736
  WF centre and spread    2  (  3.141871,  0.000000, -0.000000 )     1.48064722
  WF centre and spread    3  (  0.000000, -3.141871, -0.000000 )     1.48087007
  Sum of centres and spreads (  3.141872, -3.141871,  3.141871 )     4.44214465
 
     54    -0.395E-07     0.0001059740        4.4421470221       0.37  <-- CONV
        O_D=      0.0000000 O_OD=      0.0043797 O_TOT=      4.4421470 <-- SPRD
 Delta: O_D= -0.1739854E-08 O_OD= -0.3780643E-07 O_TOT= -0.3954629E-07 <-- DLTA
 ------------------------------------------------------------------------------
 Cycle:     55
  WF centre and spread    1  (  0.000000,  0.000000,  3.141871 )     1.48062735
  WF centre and spread    2  (  3.141871,  0.000000, -0.000000 )     1.48064720
  WF centre and spread    3  (  0.000000, -3.141871, -0.000000 )     1.48087008
  Sum of centres and spreads (  3.141872, -3.141871,  3.141871 )     4.44214463
 
     55    -0.245E-07     0.0001122296        4.4421469975       0.38  <-- CONV
        O_D=      0.0000000 O_OD=      0.0043797 O_TOT=      4.4421470 <-- SPRD
 Delta: O_D= -0.2675070E-08 O_OD= -0.2187205E-07 O_TOT= -0.2454712E-07 <-- DLTA
 ------------------------------------------------------------------------------
 Cycle:     56
  WF centre and spread    1  (  0.000000,  0.000000,  3.141871 )     1.48062734
  WF centre and spread    2  (  3.141871,  0.000000, -0.000000 )     1.48064719
  WF centre and spread    3  (  0.000000, -3.141871, -0.000000 )     1.48087008
  Sum of centres and spreads (  3.141872, -3.141871,  3.141871 )     4.44214461
 
     56    -0.206E-07     0.0000866290        4.4421469769       0.38  <-- CONV
        O_D=      0.0000000 O_OD=      0.0043797 O_TOT=      4.4421470 <-- SPRD
 Delta: O_D= -0.1501904E-08 O_OD= -0.1912754E-07 O_TOT= -0.2062945E-07 <-- DLTA
 ------------------------------------------------------------------------------
 Cycle:     57
  WF centre and spread    1  (  0.000000,  0.000000,  3.141871 )     1.48062733
  WF centre and spread    2  (  3.141871,  0.000000, -0.000000 )     1.48064719
  WF centre and spread    3  (  0.000000, -3.141871, -0.000000 )     1.48087008
  Sum of centres and spreads (  3.141872, -3.141871,  3.141871 )     4.44214460
 
     57    -0.118E-07     0.0000680926        4.4421469651       0.39  <-- CONV
        O_D=      0.0000000 O_OD=      0.0043797 O_TOT=      4.4421470 <-- SPRD
 Delta: O_D=  0.1296397E-08 O_OD= -0.1308827E-07 O_TOT= -0.1179187E-07 <-- DLTA
 ------------------------------------------------------------------------------
 Cycle:     58
  WF centre and spread    1  (  0.000000,  0.000000,  3.141871 )     1.48062733
  WF centre and spread    2  (  3.141871,  0.000000, -0.000000 )     1.48064718
  WF centre and spread    3  (  0.000000, -3.141871, -0.000000 )     1.48087008
  Sum of centres and spreads (  3.141872, -3.141871,  3.141871 )     4.44214458
 
     58    -0.119E-07     0.0000827803        4.4421469532       0.40  <-- CONV
        O_D=      0.0000000 O_OD=      0.0043797 O_TOT=      4.4421470 <-- SPRD
 Delta: O_D= -0.1445678E-08 O_OD= -0.1049248E-07 O_TOT= -0.1193816E-07 <-- DLTA
 ------------------------------------------------------------------------------
 Cycle:     59
  WF centre and spread    1  (  0.000000,  0.000000,  3.141871 )     1.48062732
  WF centre and spread    2  (  3.141871,  0.000000, -0.000000 )     1.48064718
  WF centre and spread    3  (  0.000000, -3.141871, -0.000000 )     1.48087007
  Sum of centres and spreads (  3.141872, -3.141871,  3.141871 )     4.44214457
 
     59    -0.169E-07     0.0000676200        4.4421469362       0.40  <-- CONV
        O_D=      0.0000000 O_OD=      0.0043796 O_TOT=      4.4421469 <-- SPRD
 Delta: O_D=  0.3326848E-08 O_OD= -0.2027112E-07 O_TOT= -0.1694427E-07 <-- DLTA
 ------------------------------------------------------------------------------
 Cycle:     60
  WF centre and spread    1  (  0.000000,  0.000000,  3.141871 )     1.48062731
  WF centre and spread    2  (  3.141871,  0.000000, -0.000000 )     1.48064717
  WF centre and spread    3  (  0.000000, -3.141871, -0.000000 )     1.48087006
  Sum of centres and spreads (  3.141872, -3.141871,  3.141871 )     4.44214455
 
     60    -0.191E-07     0.0001114373        4.4421469171       0.41  <-- CONV
        O_D=      0.0000000 O_OD=      0.0043796 O_TOT=      4.4421469 <-- SPRD
 Delta: O_D=  0.6245935E-09 O_OD= -0.1973449E-07 O_TOT= -0.1910989E-07 <-- DLTA
 ------------------------------------------------------------------------------
 Cycle:     61
  WF centre and spread    1  (  0.000000,  0.000000,  3.141871 )     1.48062730
  WF centre and spread    2  (  3.141871,  0.000000, -0.000000 )     1.48064716
  WF centre and spread    3  (  0.000000, -3.141871, -0.000000 )     1.48087006
  Sum of centres and spreads (  3.141872, -3.141871,  3.141871 )     4.44214452
 
     61    -0.322E-07     0.0001036017        4.4421468850       0.42  <-- CONV
        O_D=      0.0000000 O_OD=      0.0043796 O_TOT=      4.4421469 <-- SPRD
 Delta: O_D=  0.3961613E-08 O_OD= -0.3612731E-07 O_TOT= -0.3216570E-07 <-- DLTA
 ------------------------------------------------------------------------------
 Cycle:     62
  WF centre and spread    1  (  0.000000,  0.000000,  3.141871 )     1.48062729
  WF centre and spread    2  (  3.141871,  0.000000, -0.000000 )     1.48064714
  WF centre and spread    3  (  0.000000, -3.141871, -0.000000 )     1.48087006
  Sum of centres and spreads (  3.141872, -3.141871,  3.141871 )     4.44214449
 
     62    -0.292E-07     0.0001390972        4.4421468557       0.42  <-- CONV
        O_D=      0.0000000 O_OD=      0.0043796 O_TOT=      4.4421469 <-- SPRD
 Delta: O_D=  0.2324110E-08 O_OD= -0.3154551E-07 O_TOT= -0.2922140E-07 <-- DLTA
 ------------------------------------------------------------------------------
 Cycle:     63
  WF centre and spread    1  (  0.000000,  0.000000,  3.141871 )     1.48062726
  WF centre and spread    2  (  3.141871,  0.000000, -0.000000 )     1.48064712
  WF centre and spread    3  (  0.000000, -3.141871, -0.000000 )     1.48087006
  Sum of centres and spreads (  3.141872, -3.141871,  3.141871 )     4.44214444
 
     63    -0.451E-07     0.0001232343        4.4421468107       0.43  <-- CONV
        O_D=      0.0000000 O_OD=      0.0043795 O_TOT=      4.4421468 <-- SPRD
 Delta: O_D=  0.5333329E-08 O_OD= -0.5039701E-07 O_TOT= -0.4506369E-07 <-- DLTA
 ------------------------------------------------------------------------------
 Cycle:     64
  WF centre and spread    1  (  0.000000,  0.000000,  3.141871 )     1.48062725
  WF centre and spread    2  (  3.141871,  0.000000, -0.000000 )     1.48064711
  WF centre and spread    3  (  0.000000, -3.141871, -0.000000 )     1.48087005
  Sum of centres and spreads (  3.141872, -3.141871,  3.141871 )     4.44214440
 
     64    -0.395E-07     0.0001749416        4.4421467712       0.44  <-- CONV
        O_D=      0.0000000 O_OD=      0.0043795 O_TOT=      4.4421468 <-- SPRD
 Delta: O_D= -0.7531475E-08 O_OD= -0.3195677E-07 O_TOT= -0.3948824E-07 <-- DLTA
 ------------------------------------------------------------------------------
 Cycle:     65
  WF centre and spread    1  (  0.000000,  0.000000,  3.141871 )     1.48062723
  WF centre and spread    2  (  3.141871,  0.000000, -0.000000 )     1.48064709
  WF centre and spread    3  (  0.000000, -3.141871, -0.000000 )     1.48087004
  Sum of centres and spreads (  3.141872, -3.141871,  3.141871 )     4.44214435
 
     65    -0.501E-07     0.0001204109        4.4421467211       0.44  <-- CONV
        O_D=      0.0000000 O_OD=      0.0043794 O_TOT=      4.4421467 <-- SPRD
 Delta: O_D= -0.5464993E-08 O_OD= -0.4463170E-07 O_TOT= -0.5009669E-07 <-- DLTA
 ------------------------------------------------------------------------------
 Cycle:     66
  WF centre and spread    1  (  0.000000,  0.000000,  3.141871 )     1.48062721
  WF centre and spread    2  (  3.141871,  0.000000, -0.000000 )     1.48064708
  WF centre and spread    3  (  0.000000, -3.141871, -0.000000 )     1.48087004
  Sum of centres and spreads (  3.141872, -3.141871,  3.141871 )     4.44214432
 
     66    -0.280E-07     0.0000862541        4.4421466931       0.45  <-- CONV
        O_D=      0.0000000 O_OD=      0.0043794 O_TOT=      4.4421467 <-- SPRD
 Delta: O_D= -0.8373910E-09 O_OD= -0.2715492E-07 O_TOT= -0.2799231E-07 <-- DLTA
 ------------------------------------------------------------------------------
 Cycle:     67
  WF centre and spread    1  (  0.000000,  0.000000,  3.141871 )     1.48062720
  WF centre and spread    2  (  3.141871,  0.000000, -0.000000 )     1.48064706
  WF centre and spread    3  (  0.000000, -3.141871, -0.000000 )     1.48087004
  Sum of centres and spreads (  3.141872, -3.141871,  3.141871 )     4.44214430
 
     67    -0.266E-07     0.0001011189        4.4421466665       0.46  <-- CONV
        O_D=      0.0000000 O_OD=      0.0043794 O_TOT=      4.4421467 <-- SPRD
 Delta: O_D= -0.1769249E-08 O_OD= -0.2482087E-07 O_TOT= -0.2659012E-07 <-- DLTA
 ------------------------------------------------------------------------------
 Cycle:     68
  WF centre and spread    1  (  0.000000,  0.000000,  3.141871 )     1.48062719
  WF centre and spread    2  (  3.141871,  0.000000, -0.000000 )     1.48064706
  WF centre and spread    3  (  0.000000, -3.141871, -0.000000 )     1.48087004
  Sum of centres and spreads (  3.141872, -3.141871,  3.141871 )     4.44214429
 
     68    -0.118E-07     0.0000669521        4.4421466547       0.47  <-- CONV
        O_D=      0.0000000 O_OD=      0.0043794 O_TOT=      4.4421467 <-- SPRD
 Delta: O_D=  0.9954613E-09 O_OD= -0.1280853E-07 O_TOT= -0.1181307E-07 <-- DLTA
 ------------------------------------------------------------------------------
 Cycle:     69
  WF centre and spread    1  (  0.000000,  0.000000,  3.141871 )     1.48062717
  WF centre and spread    2  (  3.141871,  0.000000, -0.000000 )     1.48064704
  WF centre and spread    3  (  0.000000, -3.141871, -0.000000 )     1.48087005
  Sum of centres and spreads (  3.141872, -3.141871,  3.141871 )     4.44214426
 
     69    -0.276E-07     0.0000783049        4.4421466271       0.47  <-- CONV
        O_D=      0.0000000 O_OD=      0.0043793 O_TOT=      4.4421466 <-- SPRD
 Delta: O_D=  0.1543510E-07 O_OD= -0.4303824E-07 O_TOT= -0.2760314E-07 <-- DLTA
 ------------------------------------------------------------------------------
 Cycle:     70
  WF centre and spread    1  (  0.000000,  0.000000,  3.141871 )     1.48062715
  WF centre and spread    2  (  3.141871,  0.000000, -0.000000 )     1.48064702
  WF centre and spread    3  (  0.000000, -3.141871, -0.000000 )     1.48087004
  Sum of centres and spreads (  3.141872, -3.141871,  3.141871 )     4.44214421
 
     70    -0.464E-07     0.0001909374        4.4421465807       0.48  <-- CONV
        O_D=      0.0000000 O_OD=      0.0043793 O_TOT=      4.4421466 <-- SPRD
 Delta: O_D= -0.1291262E-07 O_OD= -0.3346415E-07 O_TOT= -0.4637677E-07 <-- DLTA
 ------------------------------------------------------------------------------
 Cycle:     71
  WF centre and spread    1  (  0.000000,  0.000000,  3.141871 )     1.48062715
  WF centre and spread    2  (  3.141871,  0.000000, -0.000000 )     1.48064702
  WF centre and spread    3  (  0.000000, -3.141871, -0.000000 )     1.48087003
  Sum of centres and spreads (  3.141872, -3.141871,  3.141871 )     4.44214419
 
     71    -0.169E-07     0.0000959814        4.4421465638       0.49  <-- CONV
        O_D=      0.0000000 O_OD=      0.0043793 O_TOT=      4.4421466 <-- SPRD
 Delta: O_D= -0.2618550E-08 O_OD= -0.1426666E-07 O_TOT= -0.1688521E-07 <-- DLTA
 ------------------------------------------------------------------------------
 Cycle:     72
  WF centre and spread    1  (  0.000000,  0.000000,  3.141871 )     1.48062714
  WF centre and spread    2  (  3.141871,  0.000000, -0.000000 )     1.48064701
  WF centre and spread    3  (  0.000000, -3.141871, -0.000000 )     1.48087002
  Sum of centres and spreads (  3.141872, -3.141871,  3.141871 )     4.44214417
 
     72    -0.233E-07     0.0000717150        4.4421465405       0.49  <-- CONV
        O_D=      0.0000000 O_OD=      0.0043793 O_TOT=      4.4421465 <-- SPRD
 Delta: O_D= -0.7432640E-09 O_OD= -0.2257791E-07 O_TOT= -0.2332117E-07 <-- DLTA
 ------------------------------------------------------------------------------
 Cycle:     73
  WF centre and spread    1  (  0.000000,  0.000000,  3.141871 )     1.48062713
  WF centre and spread    2  (  3.141871,  0.000000, -0.000000 )     1.48064700
  WF centre and spread    3  (  0.000000, -3.141871, -0.000000 )     1.48087002
  Sum of centres and spreads (  3.141872, -3.141871,  3.141871 )     4.44214415
 
     73    -0.222E-07     0.0000810543        4.4421465183       0.50  <-- CONV
        O_D=      0.0000000 O_OD=      0.0043792 O_TOT=      4.4421465 <-- SPRD
 Delta: O_D=  0.6945217E-09 O_OD= -0.2293050E-07 O_TOT= -0.2223598E-07 <-- DLTA
 ------------------------------------------------------------------------------
 Cycle:     74
  WF centre and spread    1  (  0.000000,  0.000000,  3.141871 )     1.48062712
  WF centre and spread    2  (  3.141871,  0.000000, -0.000000 )     1.48064699
  WF centre and spread    3  (  0.000000, -3.141871, -0.000000 )     1.48087001
  Sum of centres and spreads (  3.141872, -3.141871,  3.141871 )     4.44214411
 
     74    -0.358E-07     0.0000886192        4.4421464824       0.51  <-- CONV
        O_D=      0.0000000 O_OD=      0.0043792 O_TOT=      4.4421465 <-- SPRD
 Delta: O_D=  0.2856365E-08 O_OD= -0.3868859E-07 O_TOT= -0.3583223E-07 <-- DLTA
 ------------------------------------------------------------------------------
 Cycle:     75
  WF centre and spread    1  (  0.000000,  0.000000,  3.141871 )     1.48062711
  WF centre and spread    2  (  3.141871,  0.000000, -0.000000 )     1.48064697
  WF centre and spread    3  (  0.000000, -3.141871, -0.000000 )     1.48087001
  Sum of centres and spreads (  3.141872, -3.141871,  3.141871 )     4.44214409
 
     75    -0.259E-07     0.0001004976        4.4421464566       0.51  <-- CONV
        O_D=      0.0000000 O_OD=      0.0043792 O_TOT=      4.4421465 <-- SPRD
 Delta: O_D=  0.2085033E-08 O_OD= -0.2794977E-07 O_TOT= -0.2586474E-07 <-- DLTA
 ------------------------------------------------------------------------------
 Cycle:     76
  WF centre and spread    1  (  0.000000,  0.000000,  3.141871 )     1.48062710
  WF centre and spread    2  (  3.141871,  0.000000, -0.000000 )     1.48064697
  WF centre and spread    3  (  0.000000, -3.141871, -0.000000 )     1.48087000
  Sum of centres and spreads (  3.141872, -3.141871,  3.141871 )     4.44214407
 
     76    -0.201E-07     0.0001106385        4.4421464365       0.52  <-- CONV
        O_D=      0.0000000 O_OD=      0.0043791 O_TOT=      4.4421464 <-- SPRD
 Delta: O_D= -0.2016597E-08 O_OD= -0.1805931E-07 O_TOT= -0.2007590E-07 <-- DLTA
 ------------------------------------------------------------------------------
 Cycle:     77
  WF centre and spread    1  (  0.000000,  0.000000,  3.141871 )     1.48062707
  WF centre and spread    2  (  3.141871,  0.000000, -0.000000 )     1.48064695
  WF centre and spread    3  (  0.000000, -3.141871, -0.000000 )     1.48087000
  Sum of centres and spreads (  3.141872, -3.141871,  3.141871 )     4.44214403
 
     77    -0.407E-07     0.0001023360        4.4421463958       0.53  <-- CONV
        O_D=      0.0000000 O_OD=      0.0043791 O_TOT=      4.4421464 <-- SPRD
 Delta: O_D= -0.2246854E-08 O_OD= -0.3842840E-07 O_TOT= -0.4067526E-07 <-- DLTA
 ------------------------------------------------------------------------------
 Cycle:     78
  WF centre and spread    1  (  0.000000,  0.000000,  3.141871 )     1.48062706
  WF centre and spread    2  (  3.141871,  0.000000, -0.000000 )     1.48064694
  WF centre and spread    3  (  0.000000, -3.141871, -0.000000 )     1.48087000
  Sum of centres and spreads (  3.141872, -3.141871,  3.141871 )     4.44214400
 
     78    -0.221E-07     0.0000955027        4.4421463737       0.53  <-- CONV
        O_D=      0.0000000 O_OD=      0.0043791 O_TOT=      4.4421464 <-- SPRD
 Delta: O_D= -0.1131983E-08 O_OD= -0.2101634E-07 O_TOT= -0.2214832E-07 <-- DLTA
 ------------------------------------------------------------------------------
 Cycle:     79
  WF centre and spread    1  (  0.000000,  0.000000,  3.141871 )     1.48062705
  WF centre and spread    2  (  3.141871,  0.000000, -0.000000 )     1.48064693
  WF centre and spread    3  (  0.000000, -3.141871, -0.000000 )     1.48087001
  Sum of centres and spreads (  3.141872, -3.141871,  3.141871 )     4.44214398
 
     79    -0.221E-07     0.0000868129        4.4421463516       0.54  <-- CONV
        O_D=      0.0000000 O_OD=      0.0043791 O_TOT=      4.4421464 <-- SPRD
 Delta: O_D=  0.8376694E-09 O_OD= -0.2291031E-07 O_TOT= -0.2207264E-07 <-- DLTA
 ------------------------------------------------------------------------------
 Cycle:     80
  WF centre and spread    1  (  0.000000,  0.000000,  3.141871 )     1.48062704
  WF centre and spread    2  (  3.141871,  0.000000, -0.000000 )     1.48064692
  WF centre and spread    3  (  0.000000, -3.141871, -0.000000 )     1.48087001
  Sum of centres and spreads (  3.141872, -3.141871,  3.141871 )     4.44214397
 
     80    -0.162E-07     0.0000790935        4.4421463354       0.55  <-- CONV
        O_D=      0.0000000 O_OD=      0.0043790 O_TOT=      4.4421463 <-- SPRD
 Delta: O_D=  0.1100676E-08 O_OD= -0.1728433E-07 O_TOT= -0.1618365E-07 <-- DLTA
 ------------------------------------------------------------------------------
 Cycle:     81
  WF centre and spread    1  (  0.000000,  0.000000,  3.141871 )     1.48062701
  WF centre and spread    2  (  3.141871,  0.000000, -0.000000 )     1.48064689
  WF centre and spread    3  (  0.000000, -3.141871, -0.000000 )     1.48087001
  Sum of centres and spreads (  3.141872, -3.141871,  3.141871 )     4.44214392
 
     81    -0.493E-07     0.0000883651        4.4421462861       0.55  <-- CONV
        O_D=      0.0000000 O_OD=      0.0043790 O_TOT=      4.4421463 <-- SPRD
 Delta: O_D=  0.9716328E-08 O_OD= -0.5899462E-07 O_TOT= -0.4927829E-07 <-- DLTA
 ------------------------------------------------------------------------------
 Cycle:     82
  WF centre and spread    1  (  0.000000,  0.000000,  3.141871 )     1.48062700
  WF centre and spread    2  (  3.141871,  0.000000, -0.000000 )     1.48064688
  WF centre and spread    3  (  0.000000, -3.141871, -0.000000 )     1.48087000
  Sum of centres and spreads (  3.141872, -3.141871,  3.141871 )     4.44214387
 
     82    -0.428E-07     0.0001856607        4.4421462434       0.56  <-- CONV
        O_D=      0.0000000 O_OD=      0.0043790 O_TOT=      4.4421462 <-- SPRD
 Delta: O_D= -0.1012360E-07 O_OD= -0.3266270E-07 O_TOT= -0.4278630E-07 <-- DLTA
 ------------------------------------------------------------------------------
 Cycle:     83
  WF centre and spread    1  (  0.000000,  0.000000,  3.141871 )     1.48062699
  WF centre and spread    2  (  3.141871,  0.000000, -0.000000 )     1.48064688
  WF centre and spread    3  (  0.000000, -3.141871, -0.000000 )     1.48086999
  Sum of centres and spreads (  3.141872, -3.141871,  3.141871 )     4.44214386
 
     83    -0.151E-07     0.0000887540        4.4421462282       0.57  <-- CONV
        O_D=      0.0000000 O_OD=      0.0043789 O_TOT=      4.4421462 <-- SPRD
 Delta: O_D= -0.1651953E-08 O_OD= -0.1346243E-07 O_TOT= -0.1511439E-07 <-- DLTA
 ------------------------------------------------------------------------------
 Cycle:     84
  WF centre and spread    1  (  0.000000,  0.000000,  3.141871 )     1.48062699
  WF centre and spread    2  (  3.141871,  0.000000, -0.000000 )     1.48064687
  WF centre and spread    3  (  0.000000, -3.141871, -0.000000 )     1.48086999
  Sum of centres and spreads (  3.141872, -3.141871,  3.141871 )     4.44214385
 
     84    -0.120E-07     0.0000670590        4.4421462163       0.58  <-- CONV
        O_D=      0.0000000 O_OD=      0.0043789 O_TOT=      4.4421462 <-- SPRD
 Delta: O_D=  0.6521124E-08 O_OD= -0.1849549E-07 O_TOT= -0.1197437E-07 <-- DLTA
 ------------------------------------------------------------------------------
 Cycle:     85
  WF centre and spread    1  (  0.000000,  0.000000,  3.141871 )     1.48062698
  WF centre and spread    2  (  3.141871,  0.000000, -0.000000 )     1.48064686
  WF centre and spread    3  (  0.000000, -3.141871, -0.000000 )     1.48086998
  Sum of centres and spreads (  3.141872, -3.141871,  3.141871 )     4.44214382
 
     85    -0.320E-07     0.0001708319        4.4421461843       0.58  <-- CONV
        O_D=      0.0000000 O_OD=      0.0043789 O_TOT=      4.4421462 <-- SPRD
 Delta: O_D= -0.6827582E-08 O_OD= -0.2512283E-07 O_TOT= -0.3195041E-07 <-- DLTA
 ------------------------------------------------------------------------------
 Cycle:     86
  WF centre and spread    1  (  0.000000,  0.000000,  3.141871 )     1.48062697
  WF centre and spread    2  (  3.141871,  0.000000, -0.000000 )     1.48064685
  WF centre and spread    3  (  0.000000, -3.141871, -0.000000 )     1.48086998
  Sum of centres and spreads (  3.141872, -3.141871,  3.141871 )     4.44214380
 
     86    -0.125E-07     0.0000698155        4.4421461718       0.59  <-- CONV
        O_D=      0.0000000 O_OD=      0.0043789 O_TOT=      4.4421462 <-- SPRD
 Delta: O_D=  0.1852336E-08 O_OD= -0.1438300E-07 O_TOT= -0.1253066E-07 <-- DLTA
 ------------------------------------------------------------------------------
 Cycle:     87
  WF centre and spread    1  (  0.000000,  0.000000,  3.141871 )     1.48062697
  WF centre and spread    2  (  3.141871,  0.000000, -0.000000 )     1.48064685
  WF centre and spread    3  (  0.000000, -3.141871, -0.000000 )     1.48086998
  Sum of centres and spreads (  3.141872, -3.141871,  3.141871 )     4.44214379
 
     87    -0.856E-08     0.0000874234        4.4421461632       0.60  <-- CONV
        O_D=      0.0000000 O_OD=      0.0043789 O_TOT=      4.4421462 <-- SPRD
 Delta: O_D= -0.2161379E-08 O_OD= -0.6401260E-08 O_TOT= -0.8562639E-08 <-- DLTA
 ------------------------------------------------------------------------------
 Cycle:     88
  WF centre and spread    1  (  0.000000,  0.000000,  3.141871 )     1.48062694
  WF centre and spread    2  (  3.141871,  0.000000, -0.000000 )     1.48064684
  WF centre and spread    3  (  0.000000, -3.141871, -0.000000 )     1.48086999
  Sum of centres and spreads (  3.141872, -3.141871,  3.141871 )     4.44214377
 
     88    -0.258E-07     0.0000689993        4.4421461375       0.60  <-- CONV
        O_D=      0.0000000 O_OD=      0.0043788 O_TOT=      4.4421461 <-- SPRD
 Delta: O_D=  0.2528142E-07 O_OD= -0.5106039E-07 O_TOT= -0.2577897E-07 <-- DLTA
 ------------------------------------------------------------------------------
 Cycle:     89
  WF centre and spread    1  (  0.000000,  0.000000,  3.141871 )     1.48062694
  WF centre and spread    2  (  3.141871,  0.000000, -0.000000 )     1.48064682
  WF centre and spread    3  (  0.000000, -3.141871, -0.000000 )     1.48086997
  Sum of centres and spreads (  3.141872, -3.141871,  3.141871 )     4.44214373
 
     89    -0.397E-07     0.0002159035        4.4421460977       0.61  <-- CONV
        O_D=      0.0000000 O_OD=      0.0043788 O_TOT=      4.4421461 <-- SPRD
 Delta: O_D= -0.2607172E-07 O_OD= -0.1366582E-07 O_TOT= -0.3973754E-07 <-- DLTA
 ------------------------------------------------------------------------------
 Cycle:     90
  WF centre and spread    1  (  0.000000,  0.000000,  3.141871 )     1.48062693
  WF centre and spread    2  (  3.141871,  0.000000, -0.000000 )     1.48064682
  WF centre and spread    3  (  0.000000, -3.141871, -0.000000 )     1.48086997
  Sum of centres and spreads (  3.141872, -3.141871,  3.141871 )     4.44214372
 
     90    -0.681E-08     0.0000540452        4.4421460909       0.62  <-- CONV
        O_D=      0.0000000 O_OD=      0.0043788 O_TOT=      4.4421461 <-- SPRD
 Delta: O_D= -0.5478225E-09 O_OD= -0.6261077E-08 O_TOT= -0.6808899E-08 <-- DLTA
 ------------------------------------------------------------------------------
 Cycle:     91
  WF centre and spread    1  (  0.000000,  0.000000,  3.141871 )     1.48062693
  WF centre and spread    2  (  3.141871,  0.000000, -0.000000 )     1.48064682
  WF centre and spread    3  (  0.000000, -3.141871, -0.000000 )     1.48086997
  Sum of centres and spreads (  3.141872, -3.141871,  3.141871 )     4.44214372
 
     91    -0.953E-11     0.0000479157        4.4421460909       0.62  <-- CONV
        O_D=      0.0000000 O_OD=      0.0043788 O_TOT=      4.4421461 <-- SPRD
 Delta: O_D= -0.1204144E-12 O_OD= -0.9414072E-11 O_TOT= -0.9534595E-11 <-- DLTA
 ------------------------------------------------------------------------------
 Cycle:     92
  WF centre and spread    1  (  0.000000,  0.000000,  3.141871 )     1.48062693
  WF centre and spread    2  (  3.141871,  0.000000, -0.000000 )     1.48064681
  WF centre and spread    3  (  0.000000, -3.141871, -0.000000 )     1.48086997
  Sum of centres and spreads (  3.141872, -3.141871,  3.141871 )     4.44214370
 
     92    -0.169E-07     0.0000479090        4.4421460740       0.63  <-- CONV
        O_D=      0.0000000 O_OD=      0.0043788 O_TOT=      4.4421461 <-- SPRD
 Delta: O_D=  0.1529088E-08 O_OD= -0.1842385E-07 O_TOT= -0.1689476E-07 <-- DLTA
 ------------------------------------------------------------------------------
 Cycle:     93
  WF centre and spread    1  (  0.000000,  0.000000,  3.141871 )     1.48062692
  WF centre and spread    2  (  3.141871,  0.000000, -0.000000 )     1.48064681
  WF centre and spread    3  (  0.000000, -3.141871, -0.000000 )     1.48086996
  Sum of centres and spreads (  3.141872, -3.141871,  3.141871 )     4.44214369
 
     93    -0.105E-07     0.0000922546        4.4421460635       0.63  <-- CONV
        O_D=      0.0000000 O_OD=      0.0043788 O_TOT=      4.4421461 <-- SPRD
 Delta: O_D= -0.1654695E-08 O_OD= -0.8825758E-08 O_TOT= -0.1048045E-07 <-- DLTA
 ------------------------------------------------------------------------------
 Cycle:     94
  WF centre and spread    1  (  0.000000,  0.000000,  3.141871 )     1.48062692
  WF centre and spread    2  (  3.141871,  0.000000, -0.000000 )     1.48064681
  WF centre and spread    3  (  0.000000, -3.141871, -0.000000 )     1.48086996
  Sum of centres and spreads (  3.141872, -3.141871,  3.141871 )     4.44214369
 
     94    -0.635E-11     0.0000419044        4.4421460635       0.64  <-- CONV
        O_D=      0.0000000 O_OD=      0.0043788 O_TOT=      4.4421461 <-- SPRD
 Delta: O_D= -0.3577635E-12 O_OD= -0.5990598E-11 O_TOT= -0.6348699E-11 <-- DLTA
 ------------------------------------------------------------------------------
 Cycle:     95
  WF centre and spread    1  (  0.000000,  0.000000,  3.141871 )     1.48062691
  WF centre and spread    2  (  3.141871,  0.000000, -0.000000 )     1.48064680
  WF centre and spread    3  (  0.000000, -3.141871, -0.000000 )     1.48086996
  Sum of centres and spreads (  3.141872, -3.141871,  3.141871 )     4.44214368
 
     95    -0.131E-07     0.0000418980        4.4421460504       0.65  <-- CONV
        O_D=      0.0000000 O_OD=      0.0043788 O_TOT=      4.4421461 <-- SPRD
 Delta: O_D=  0.2797073E-08 O_OD= -0.1588849E-07 O_TOT= -0.1309142E-07 <-- DLTA
 ------------------------------------------------------------------------------
 Cycle:     96
  WF centre and spread    1  (  0.000000,  0.000000,  3.141871 )     1.48062691
  WF centre and spread    2  (  3.141871,  0.000000, -0.000000 )     1.48064680
  WF centre and spread    3  (  0.000000, -3.141871, -0.000000 )     1.48086996
  Sum of centres and spreads (  3.141872, -3.141871,  3.141871 )     4.44214367
 
     96    -0.639E-08     0.0000793939        4.4421460440       0.65  <-- CONV
        O_D=      0.0000000 O_OD=      0.0043788 O_TOT=      4.4421460 <-- SPRD
 Delta: O_D= -0.2595925E-08 O_OD= -0.3793969E-08 O_TOT= -0.6389894E-08 <-- DLTA
 ------------------------------------------------------------------------------
 Cycle:     97
  WF centre and spread    1  (  0.000000,  0.000000,  3.141871 )     1.48062691
  WF centre and spread    2  (  3.141871,  0.000000, -0.000000 )     1.48064680
  WF centre and spread    3  (  0.000000, -3.141871, -0.000000 )     1.48086996
  Sum of centres and spreads (  3.141872, -3.141871,  3.141871 )     4.44214367
 
[...]
  Sum of centres and spreads (  3.141872, -3.141871,  3.141871 )     4.44213602
 
    473    -0.945E-11     0.0000500977        4.4421383886       3.06  <-- CONV
        O_D=      0.0000000 O_OD=      0.0043711 O_TOT=      4.4421384 <-- SPRD
 Delta: O_D= -0.5326367E-12 O_OD= -0.8914263E-11 O_TOT= -0.9447554E-11 <-- DLTA
 ------------------------------------------------------------------------------
 Cycle:    474
  WF centre and spread    1  (  0.000000,  0.000000,  3.141871 )     1.48062340
  WF centre and spread    2  (  3.141871,  0.000000, -0.000000 )     1.48064356
  WF centre and spread    3  (  0.000000, -3.141871, -0.000000 )     1.48086905
  Sum of centres and spreads (  3.141872, -3.141871,  3.141871 )     4.44213601
 
    474    -0.126E-07     0.0000500879        4.4421383760       3.07  <-- CONV
        O_D=      0.0000000 O_OD=      0.0043711 O_TOT=      4.4421384 <-- SPRD
 Delta: O_D=  0.1335502E-08 O_OD= -0.1394388E-07 O_TOT= -0.1260837E-07 <-- DLTA
 ------------------------------------------------------------------------------
 Cycle:    475
  WF centre and spread    1  (  0.000000,  0.000000,  3.141871 )     1.48062338
  WF centre and spread    2  (  3.141871,  0.000000, -0.000000 )     1.48064355
  WF centre and spread    3  (  0.000000, -3.141871, -0.000000 )     1.48086906
  Sum of centres and spreads (  3.141872, -3.141871,  3.141871 )     4.44213598
 
    475    -0.228E-07     0.0000788586        4.4421383532       3.08  <-- CONV
        O_D=      0.0000000 O_OD=      0.0043711 O_TOT=      4.4421384 <-- SPRD
 Delta: O_D=  0.1475918E-07 O_OD= -0.3753884E-07 O_TOT= -0.2277966E-07 <-- DLTA
 ------------------------------------------------------------------------------
 Cycle:    476
  WF centre and spread    1  (  0.000000,  0.000000,  3.141871 )     1.48062337
  WF centre and spread    2  (  3.141871,  0.000000, -0.000000 )     1.48064353
  WF centre and spread    3  (  0.000000, -3.141871, -0.000000 )     1.48086905
  Sum of centres and spreads (  3.141872, -3.141871,  3.141871 )     4.44213594
 
    476    -0.411E-07     0.0001982490        4.4421383121       3.08  <-- CONV
        O_D=      0.0000000 O_OD=      0.0043710 O_TOT=      4.4421383 <-- SPRD
 Delta: O_D= -0.1073933E-07 O_OD= -0.3036059E-07 O_TOT= -0.4109992E-07 <-- DLTA
 ------------------------------------------------------------------------------
 Cycle:    477
  WF centre and spread    1  (  0.000000,  0.000000,  3.141871 )     1.48062336
  WF centre and spread    2  (  3.141871,  0.000000, -0.000000 )     1.48064352
  WF centre and spread    3  (  0.000000, -3.141871, -0.000000 )     1.48086905
  Sum of centres and spreads (  3.141872, -3.141871,  3.141871 )     4.44213593
 
    477    -0.137E-07     0.0000696974        4.4421382984       3.09  <-- CONV
        O_D=      0.0000000 O_OD=      0.0043710 O_TOT=      4.4421383 <-- SPRD
 Delta: O_D= -0.3186996E-08 O_OD= -0.1049447E-07 O_TOT= -0.1368146E-07 <-- DLTA
 ------------------------------------------------------------------------------
 Cycle:    478
  WF centre and spread    1  (  0.000000,  0.000000,  3.141871 )     1.48062336
  WF centre and spread    2  (  3.141871,  0.000000, -0.000000 )     1.48064352
  WF centre and spread    3  (  0.000000, -3.141871, -0.000000 )     1.48086904
  Sum of centres and spreads (  3.141872, -3.141871,  3.141871 )     4.44213592
 
    478    -0.816E-08     0.0000746367        4.4421382903       3.10  <-- CONV
        O_D=      0.0000000 O_OD=      0.0043710 O_TOT=      4.4421383 <-- SPRD
 Delta: O_D=  0.1649397E-08 O_OD= -0.9805858E-08 O_TOT= -0.8156460E-08 <-- DLTA
 ------------------------------------------------------------------------------
 Cycle:    479
  WF centre and spread    1  (  0.000000,  0.000000,  3.141871 )     1.48062336
  WF centre and spread    2  (  3.141871,  0.000000, -0.000000 )     1.48064352
  WF centre and spread    3  (  0.000000, -3.141871, -0.000000 )     1.48086904
  Sum of centres and spreads (  3.141872, -3.141871,  3.141871 )     4.44213592
 
    479    -0.123E-10     0.0000612244        4.4421382902       3.10  <-- CONV
        O_D=      0.0000000 O_OD=      0.0043710 O_TOT=      4.4421383 <-- SPRD
 Delta: O_D= -0.4371898E-12 O_OD= -0.1189426E-10 O_TOT= -0.1233147E-10 <-- DLTA
 ------------------------------------------------------------------------------
 Cycle:    480
  WF centre and spread    1  (  0.000000,  0.000000,  3.141871 )     1.48062334
  WF centre and spread    2  (  3.141871,  0.000000, -0.000000 )     1.48064350
  WF centre and spread    3  (  0.000000, -3.141871, -0.000000 )     1.48086904
  Sum of centres and spreads (  3.141872, -3.141871,  3.141871 )     4.44213588
 
    480    -0.407E-07     0.0000612249        4.4421382496       3.11  <-- CONV
        O_D=      0.0000000 O_OD=      0.0043710 O_TOT=      4.4421382 <-- SPRD
 Delta: O_D=  0.4989205E-08 O_OD= -0.4564620E-07 O_TOT= -0.4065699E-07 <-- DLTA
 ------------------------------------------------------------------------------
 Cycle:    481
  WF centre and spread    1  (  0.000000,  0.000000,  3.141871 )     1.48062333
  WF centre and spread    2  (  3.141871,  0.000000, -0.000000 )     1.48064350
  WF centre and spread    3  (  0.000000, -3.141871, -0.000000 )     1.48086904
  Sum of centres and spreads (  3.141872, -3.141871,  3.141871 )     4.44213587
 
    481    -0.148E-07     0.0001189859        4.4421382348       3.12  <-- CONV
        O_D=      0.0000000 O_OD=      0.0043709 O_TOT=      4.4421382 <-- SPRD
 Delta: O_D= -0.6701918E-08 O_OD= -0.8076480E-08 O_TOT= -0.1477840E-07 <-- DLTA
 ------------------------------------------------------------------------------
 Cycle:    482
  WF centre and spread    1  (  0.000000,  0.000000,  3.141871 )     1.48062333
  WF centre and spread    2  (  3.141871,  0.000000, -0.000000 )     1.48064349
  WF centre and spread    3  (  0.000000, -3.141871, -0.000000 )     1.48086904
  Sum of centres and spreads (  3.141872, -3.141871,  3.141871 )     4.44213586
 
    482    -0.102E-07     0.0000561724        4.4421382246       3.12  <-- CONV
        O_D=      0.0000000 O_OD=      0.0043709 O_TOT=      4.4421382 <-- SPRD
 Delta: O_D= -0.2233342E-08 O_OD= -0.7982195E-08 O_TOT= -0.1021554E-07 <-- DLTA
 ------------------------------------------------------------------------------
 Cycle:    483
  WF centre and spread    1  (  0.000000,  0.000000,  3.141871 )     1.48062332
  WF centre and spread    2  (  3.141871,  0.000000, -0.000000 )     1.48064348
  WF centre and spread    3  (  0.000000, -3.141871, -0.000000 )     1.48086904
  Sum of centres and spreads (  3.141872, -3.141871,  3.141871 )     4.44213584
 
    483    -0.147E-07     0.0000530227        4.4421382099       3.13  <-- CONV
        O_D=      0.0000000 O_OD=      0.0043709 O_TOT=      4.4421382 <-- SPRD
 Delta: O_D=  0.7653294E-08 O_OD= -0.2234200E-07 O_TOT= -0.1468871E-07 <-- DLTA
 ------------------------------------------------------------------------------
 Cycle:    484
  WF centre and spread    1  (  0.000000,  0.000000,  3.141871 )     1.48062331
  WF centre and spread    2  (  3.141871,  0.000000, -0.000000 )     1.48064348
  WF centre and spread    3  (  0.000000, -3.141871, -0.000000 )     1.48086903
  Sum of centres and spreads (  3.141872, -3.141871,  3.141871 )     4.44213582
 
    484    -0.178E-07     0.0001150485        4.4421381921       3.14  <-- CONV
        O_D=      0.0000000 O_OD=      0.0043709 O_TOT=      4.4421382 <-- SPRD
 Delta: O_D= -0.5540661E-08 O_OD= -0.1225133E-07 O_TOT= -0.1779199E-07 <-- DLTA
 ------------------------------------------------------------------------------
 Cycle:    485
  WF centre and spread    1  (  0.000000,  0.000000,  3.141871 )     1.48062331
  WF centre and spread    2  (  3.141871,  0.000000, -0.000000 )     1.48064347
  WF centre and spread    3  (  0.000000, -3.141871, -0.000000 )     1.48086903
  Sum of centres and spreads (  3.141872, -3.141871,  3.141871 )     4.44213581
 
    485    -0.128E-07     0.0000624696        4.4421381793       3.14  <-- CONV
        O_D=      0.0000000 O_OD=      0.0043709 O_TOT=      4.4421382 <-- SPRD
 Delta: O_D=  0.3622171E-08 O_OD= -0.1645900E-07 O_TOT= -0.1283683E-07 <-- DLTA
 ------------------------------------------------------------------------------
 Cycle:    486
  WF centre and spread    1  (  0.000000,  0.000000,  3.141871 )     1.48062331
  WF centre and spread    2  (  3.141871,  0.000000, -0.000000 )     1.48064347
  WF centre and spread    3  (  0.000000, -3.141871, -0.000000 )     1.48086903
  Sum of centres and spreads (  3.141872, -3.141871,  3.141871 )     4.44213581
 
    486    -0.116E-10     0.0000709814        4.4421381793       3.15  <-- CONV
        O_D=      0.0000000 O_OD=      0.0043709 O_TOT=      4.4421382 <-- SPRD
 Delta: O_D=  0.1605364E-11 O_OD= -0.1325121E-10 O_TOT= -0.1164580E-10 <-- DLTA
 ------------------------------------------------------------------------------
 Cycle:    487
  WF centre and spread    1  (  0.000000,  0.000000,  3.141871 )     1.48062329
  WF centre and spread    2  (  3.141871,  0.000000, -0.000000 )     1.48064346
  WF centre and spread    3  (  0.000000, -3.141871, -0.000000 )     1.48086903
  Sum of centres and spreads (  3.141872, -3.141871,  3.141871 )     4.44213578
 
    487    -0.265E-07     0.0000709756        4.4421381527       3.15  <-- CONV
        O_D=      0.0000000 O_OD=      0.0043709 O_TOT=      4.4421382 <-- SPRD
 Delta: O_D= -0.4581491E-08 O_OD= -0.2195434E-07 O_TOT= -0.2653583E-07 <-- DLTA
 ------------------------------------------------------------------------------
 Cycle:    488
  WF centre and spread    1  (  0.000000,  0.000000,  3.141871 )     1.48062327
  WF centre and spread    2  (  3.141871,  0.000000, -0.000000 )     1.48064344
  WF centre and spread    3  (  0.000000, -3.141871, -0.000000 )     1.48086903
  Sum of centres and spreads (  3.141872, -3.141871,  3.141871 )     4.44213575
 
    488    -0.359E-07     0.0001195819        4.4421381169       3.16  <-- CONV
        O_D=      0.0000000 O_OD=      0.0043708 O_TOT=      4.4421381 <-- SPRD
 Delta: O_D=  0.1695840E-07 O_OD= -0.5282566E-07 O_TOT= -0.3586726E-07 <-- DLTA
 ------------------------------------------------------------------------------
 Cycle:    489
  WF centre and spread    1  (  0.000000,  0.000000,  3.141871 )     1.48062325
  WF centre and spread    2  (  3.141871,  0.000000, -0.000000 )     1.48064342
  WF centre and spread    3  (  0.000000, -3.141871, -0.000000 )     1.48086903
  Sum of centres and spreads (  3.141872, -3.141871,  3.141871 )     4.44213570
 
    489    -0.472E-07     0.0001873306        4.4421380697       3.17  <-- CONV
        O_D=      0.0000001 O_OD=      0.0043707 O_TOT=      4.4421381 <-- SPRD
 Delta: O_D=  0.5819035E-07 O_OD= -0.1053887E-06 O_TOT= -0.4719830E-07 <-- DLTA
 ------------------------------------------------------------------------------
 Cycle:    490
  WF centre and spread    1  (  0.000000,  0.000000,  3.141871 )     1.48062321
  WF centre and spread    2  (  3.141871,  0.000000, -0.000000 )     1.48064338
  WF centre and spread    3  (  0.000000, -3.141871, -0.000000 )     1.48086901
  Sum of centres and spreads (  3.141872, -3.141871,  3.141871 )     4.44213560
 
    490    -0.100E-06     0.0002074940        4.4421379697       3.17  <-- CONV
        O_D=      0.0000000 O_OD=      0.0043707 O_TOT=      4.4421380 <-- SPRD
 Delta: O_D= -0.6621670E-07 O_OD= -0.3377166E-07 O_TOT= -0.9998836E-07 <-- DLTA
 ------------------------------------------------------------------------------
 Cycle:    491
  WF centre and spread    1  (  0.000000,  0.000000,  3.141871 )     1.48062320
  WF centre and spread    2  (  3.141871,  0.000000, -0.000000 )     1.48064338
  WF centre and spread    3  (  0.000000, -3.141871, -0.000000 )     1.48086900
  Sum of centres and spreads (  3.141872, -3.141871,  3.141871 )     4.44213558
 
    491    -0.189E-07     0.0001255321        4.4421379508       3.18  <-- CONV
        O_D=      0.0000000 O_OD=      0.0043707 O_TOT=      4.4421380 <-- SPRD
 Delta: O_D= -0.9530434E-08 O_OD= -0.9344134E-08 O_TOT= -0.1887457E-07 <-- DLTA
 ------------------------------------------------------------------------------
 Cycle:    492
  WF centre and spread    1  (  0.000000,  0.000000,  3.141871 )     1.48062320
  WF centre and spread    2  (  3.141871,  0.000000, -0.000000 )     1.48064337
  WF centre and spread    3  (  0.000000, -3.141871, -0.000000 )     1.48086900
  Sum of centres and spreads (  3.141872, -3.141871,  3.141871 )     4.44213557
 
    492    -0.728E-08     0.0000570884        4.4421379435       3.19  <-- CONV
        O_D=      0.0000000 O_OD=      0.0043707 O_TOT=      4.4421379 <-- SPRD
 Delta: O_D=  0.1327617E-09 O_OD= -0.7416041E-08 O_TOT= -0.7283279E-08 <-- DLTA
 ------------------------------------------------------------------------------
 Cycle:    493
  WF centre and spread    1  (  0.000000,  0.000000,  3.141871 )     1.48062320
  WF centre and spread    2  (  3.141871,  0.000000, -0.000000 )     1.48064337
  WF centre and spread    3  (  0.000000, -3.141871, -0.000000 )     1.48086900
  Sum of centres and spreads (  3.141872, -3.141871,  3.141871 )     4.44213557
 
    493    -0.104E-10     0.0000564147        4.4421379435       3.19  <-- CONV
        O_D=      0.0000000 O_OD=      0.0043707 O_TOT=      4.4421379 <-- SPRD
 Delta: O_D=  0.3552427E-13 O_OD= -0.1042341E-10 O_TOT= -0.1038813E-10 <-- DLTA
 ------------------------------------------------------------------------------
 Cycle:    494
  WF centre and spread    1  (  0.000000,  0.000000,  3.141871 )     1.48062319
  WF centre and spread    2  (  3.141871,  0.000000, -0.000000 )     1.48064336
  WF centre and spread    3  (  0.000000, -3.141871, -0.000000 )     1.48086900
  Sum of centres and spreads (  3.141872, -3.141871,  3.141871 )     4.44213555
 
    494    -0.236E-07     0.0000564132        4.4421379199       3.20  <-- CONV
        O_D=      0.0000000 O_OD=      0.0043706 O_TOT=      4.4421379 <-- SPRD
 Delta: O_D=  0.1728879E-08 O_OD= -0.2534210E-07 O_TOT= -0.2361322E-07 <-- DLTA
 ------------------------------------------------------------------------------
 Cycle:    495
  WF centre and spread    1  (  0.000000,  0.000000,  3.141871 )     1.48062318
  WF centre and spread    2  (  3.141871,  0.000000, -0.000000 )     1.48064336
  WF centre and spread    3  (  0.000000, -3.141871, -0.000000 )     1.48086900
  Sum of centres and spreads (  3.141872, -3.141871,  3.141871 )     4.44213554
 
    495    -0.116E-07     0.0001044760        4.4421379083       3.20  <-- CONV
        O_D=      0.0000000 O_OD=      0.0043706 O_TOT=      4.4421379 <-- SPRD
 Delta: O_D= -0.2221240E-08 O_OD= -0.9342003E-08 O_TOT= -0.1156324E-07 <-- DLTA
 ------------------------------------------------------------------------------
 Cycle:    496
  WF centre and spread    1  (  0.000000,  0.000000,  3.141871 )     1.48062318
  WF centre and spread    2  (  3.141871,  0.000000, -0.000000 )     1.48064336
  WF centre and spread    3  (  0.000000, -3.141871, -0.000000 )     1.48086900
  Sum of centres and spreads (  3.141872, -3.141871,  3.141871 )     4.44213553
 
    496    -0.732E-08     0.0000452598        4.4421379010       3.21  <-- CONV
        O_D=      0.0000000 O_OD=      0.0043706 O_TOT=      4.4421379 <-- SPRD
 Delta: O_D=  0.8583377E-11 O_OD= -0.7329628E-08 O_TOT= -0.7321045E-08 <-- DLTA
 ------------------------------------------------------------------------------
 Cycle:    497
  WF centre and spread    1  (  0.000000,  0.000000,  3.141871 )     1.48062315
  WF centre and spread    2  (  3.141871,  0.000000, -0.000000 )     1.48064333
  WF centre and spread    3  (  0.000000, -3.141871, -0.000000 )     1.48086899
  Sum of centres and spreads (  3.141872, -3.141871,  3.141871 )     4.44213546
 
    497    -0.691E-07     0.0000575628        4.4421378319       3.22  <-- CONV
        O_D=      0.0000000 O_OD=      0.0043705 O_TOT=      4.4421378 <-- SPRD
 Delta: O_D=  0.2705072E-09 O_OD= -0.6938871E-07 O_TOT= -0.6911820E-07 <-- DLTA
 ------------------------------------------------------------------------------
 Cycle:    498
  WF centre and spread    1  (  0.000000,  0.000000,  3.141871 )     1.48062314
  WF centre and spread    2  (  3.141871,  0.000000, -0.000000 )     1.48064332
  WF centre and spread    3  (  0.000000, -3.141871, -0.000000 )     1.48086899
  Sum of centres and spreads (  3.141872, -3.141871,  3.141871 )     4.44213544
 
    498    -0.208E-07     0.0001416877        4.4421378111       3.23  <-- CONV
        O_D=      0.0000000 O_OD=      0.0043705 O_TOT=      4.4421378 <-- SPRD
 Delta: O_D= -0.5625300E-09 O_OD= -0.2026670E-07 O_TOT= -0.2082923E-07 <-- DLTA
 ------------------------------------------------------------------------------
 Cycle:    499
  WF centre and spread    1  (  0.000000,  0.000000,  3.141871 )     1.48062314
  WF centre and spread    2  (  3.141871,  0.000000, -0.000000 )     1.48064332
  WF centre and spread    3  (  0.000000, -3.141871, -0.000000 )     1.48086899
  Sum of centres and spreads (  3.141872, -3.141871,  3.141871 )     4.44213544
 
    499    -0.581E-11     0.0000409760        4.4421378111       3.23  <-- CONV
        O_D=      0.0000000 O_OD=      0.0043705 O_TOT=      4.4421378 <-- SPRD
 Delta: O_D= -0.3546292E-12 O_OD= -0.5452977E-11 O_TOT= -0.5807799E-11 <-- DLTA
 ------------------------------------------------------------------------------
 Cycle:    500
  WF centre and spread    1  (  0.000000,  0.000000,  3.141871 )     1.48062313
  WF centre and spread    2  (  3.141871,  0.000000, -0.000000 )     1.48064331
  WF centre and spread    3  (  0.000000, -3.141871, -0.000000 )     1.48086899
  Sum of centres and spreads (  3.141872, -3.141871,  3.141871 )     4.44213543
 
    500    -0.116E-07     0.0000409672        4.4421377994       3.24  <-- CONV
        O_D=      0.0000000 O_OD=      0.0043705 O_TOT=      4.4421378 <-- SPRD
 Delta: O_D=  0.3592299E-08 O_OD= -0.1522401E-07 O_TOT= -0.1163171E-07 <-- DLTA
 ------------------------------------------------------------------------------

 Writing checkpoint file mp-23193.chk... done

 Final State
  WF centre and spread    1  (  0.000000,  0.000000,  3.141871 )     1.48062313
  WF centre and spread    2  (  3.141871,  0.000000, -0.000000 )     1.48064331
  WF centre and spread    3  (  0.000000, -3.141871, -0.000000 )     1.48086899
  Sum of centres and spreads (  3.141872, -3.141871,  3.141871 )     4.44213543
 
         Spreads (Ang^2)       Omega I      =     4.437767285
        ================       Omega D      =     0.000000004
                               Omega OD     =     0.004370510
    Final Spread (Ang^2)       Omega Total  =     4.442137799
 ------------------------------------------------------------------------------
 Time for wannierise            3.220 (sec)

 Writing checkpoint file mp-23193.chk... done

 Time for plotting              0.000 (sec)
 Total Execution Time           4.509 (sec)

 *===========================================================================*
 |                             TIMING INFORMATION                            |
 *===========================================================================*
 |    Tag                                                Ncalls      Time (s)|
 |---------------------------------------------------------------------------|
 |kmesh: get                                        :         1         1.040|
 |overlap: allocate                                 :         1         0.002|
 |overlap: read                                     :         1         0.137|
 |wann: main                                        :         1         3.220|
 |plot: main                                        :         1         0.000|
 *---------------------------------------------------------------------------*
 
 All done: wannier90 exiting
