 
             +---------------------------------------------------+
             |                                                   |
             |                   WANNIER90                       |
             |                                                   |
             +---------------------------------------------------+
             |                                                   |
             |        Welcome to the Maximally-Localized         |
             |        Generalized Wannier Functions code         |
             |            http://www.wannier.org                 |
             |                                                   |
             |                                                   |
             |  Wannier90 Developer Group:                       |
             |    Giovanni Pizzi    (EPFL)                       |
             |    Valerio Vitale    (Cambridge)                  |
             |    David Vanderbilt  (Rutgers University)         |
             |    Nicola Marzari    (EPFL)                       |
             |    Ivo Souza         (Universidad del Pais Vasco) |
             |    Arash A. Mostofi  (Imperial College London)    |
             |    Jonathan R. Yates (University of Oxford)       |
             |                                                   |
             |  For the full list of Wannier90 3.x authors,      |
             |  please check the code documentation and the      |
             |  README on the GitHub page of the code            |
             |                                                   |
             |                                                   |
             |  Please cite                                      |
             |                                                   |
             |  [ref] "Wannier90 as a community code:            |
             |        new features and applications",            |
             |        G. Pizzi et al., J. Phys. Cond. Matt. 32,  |
             |        165902 (2020).                             |
             |        http://doi.org/10.1088/1361-648X/ab51ff    |
             |                                                   |
             |  in any publications arising from the use of      |
             |  this code. For the method please cite            |
             |                                                   |
             |  [ref] "Maximally Localized Generalised Wannier   |
             |         Functions for Composite Energy Bands"     |
             |         N. Marzari and D. Vanderbilt              |
             |         Phys. Rev. B 56 12847 (1997)              |
             |                                                   |
             |  [ref] "Maximally Localized Wannier Functions     |
             |         for Entangled Energy Bands"               |
             |         I. Souza, N. Marzari and D. Vanderbilt    |
             |         Phys. Rev. B 65 035109 (2001)             |
             |                                                   |
             |                                                   |
             | Copyright (c) 1996-2020                           |
             |        The Wannier90 Developer Group and          |
             |        individual contributors                    |
             |                                                   |
             |      Release: 3.1.0        5th March    2020      |
             |                                                   |
             | This program is free software; you can            |
             | redistribute it and/or modify it under the terms  |
             | of the GNU General Public License as published by |
             | the Free Software Foundation; either version 2 of |
             | the License, or (at your option) any later version|
             |                                                   |
             | This program is distributed in the hope that it   |
             | will be useful, but WITHOUT ANY WARRANTY; without |
             | even the implied warranty of MERCHANTABILITY or   |
             | FITNESS FOR A PARTICULAR PURPOSE. See the GNU     |
             | General Public License for more details.          |
             |                                                   |
             | You should have received a copy of the GNU General|
             | Public License along with this program; if not,   |
             | write to the Free Software Foundation, Inc.,      |
             | 675 Mass Ave, Cambridge, MA 02139, USA.           |
             |                                                   |
             +---------------------------------------------------+
             |    Execution started on  8Apr2024 at 15:15:46     |
             +---------------------------------------------------+
 
 ******************************************************************************
 * -> Using CODATA 2006 constant values                                       *
 *    (http://physics.nist.gov/cuu/Constants/index.html)                      *
 * -> Using Bohr value from CODATA                                            *
 ******************************************************************************
 

 Running in parallel on  16 CPUs

 
                                    ------
                                    SYSTEM
                                    ------
 
                              Lattice Vectors (Ang)
                    a_1    -3.141871   0.000000   3.141871
                    a_2     0.000000   3.141871   3.141871
                    a_3    -3.141871   3.141871   0.000000
 
                   Unit Cell Volume:      62.02904  (Ang^3)
 
                        Reciprocal-Space Vectors (Ang^-1)
                    b_1    -0.999911  -0.999911   0.999911
                    b_2     0.999911   0.999911   0.999911
                    b_3    -0.999911   0.999911  -0.999911
  
 *----------------------------------------------------------------------------*
 |   Site       Fractional Coordinate          Cartesian Coordinate (Ang)     |
 +----------------------------------------------------------------------------+
 | K    1   0.00000   0.00000   0.00000   |    0.00000   0.00000   0.00000    |
 | Cl   1   0.50000   0.50000   0.50000   |   -3.14187   3.14187   3.14187    |
 *----------------------------------------------------------------------------*
                                ------------
                                K-POINT GRID
                                ------------
  
             Grid size = 12 x 12 x 12      Total points = 1728
  
  
 *---------------------------------- MAIN ------------------------------------*
 |  Number of Wannier Functions               :                 3             |
 |  Number of Objective Wannier Functions     :                 3             |
 |  Number of input Bloch states              :                 3             |
 |  Output verbosity (1=low, 5=high)          :                 1             |
 |  Timing Level (1=low, 5=high)              :                 1             |
 |  Optimisation (0=memory, 3=speed)          :                 3             |
 |  Length Unit                               :               Ang             |
 |  Post-processing setup (write *.nnkp)      :                 F             |
 |  Using Gamma-only branch of algorithms     :                 F             |
 *----------------------------------------------------------------------------*
 *------------------------------- WANNIERISE ---------------------------------*
 |  Total number of iterations                :               500             |
 |  Number of CG steps before reset           :                 5             |
 |  Trial step length for line search         :             2.000             |
 |  Convergence tolerence                     :         0.100E-09             |
 |  Convergence window                        :                -1             |
 |  Iterations between writing output         :                 1             |
 |  Iterations between backing up to disk     :               100             |
 |  Write r^2_nm to file                      :                 F             |
 |  Write xyz WF centres to file              :                 F             |
 |  Write on-site energies <0n|H|0n> to file  :                 F             |
 |  Use guiding centre to control phases      :                 F             |
 |  Use phases for initial projections        :                 F             |
 *----------------------------------------------------------------------------*
 Time to read parameters        0.133 (sec)

 *---------------------------------- K-MESH ----------------------------------*
 +----------------------------------------------------------------------------+
 |                    Distance to Nearest-Neighbour Shells                    |
 |                    ------------------------------------                    |
 |          Shell             Distance (Ang^-1)          Multiplicity         |
 |          -----             -----------------          ------------         |
 |             1                   0.144325                      8            |
 |             2                   0.166652                      6            |
 |             3                   0.235681                     12            |
 |             4                   0.276361                     24            |
 |             5                   0.288650                      8            |
 |             6                   0.333304                      6            |
 |             7                   0.363209                     24            |
 |             8                   0.372645                     24            |
 |             9                   0.408212                     24            |
 |            10                   0.432974                     32            |
 |            11                   0.471363                     12            |
 |            12                   0.492963                     48            |
 |            13                   0.499956                     30            |
 |            14                   0.527000                     24            |
 |            15                   0.546405                     24            |
 |            16                   0.552722                     24            |
 |            17                   0.577299                      8            |
 |            18                   0.595066                     48            |
 |            19                   0.600872                     24            |
 |            20                   0.623554                     48            |
 |            21                   0.640039                     72            |
 |            22                   0.666608                      6            |
 |            23                   0.682052                     24            |
 |            24                   0.687123                     48            |
 |            25                   0.707044                     36            |
 |            26                   0.721624                     56            |
 |            27                   0.726419                     24            |
 |            28                   0.745290                     24            |
 |            29                   0.759136                     72            |
 |            30                   0.763695                     48            |
 |            31                   0.781667                     24            |
 |            32                   0.794879                     48            |
 |            33                   0.816424                     24            |
 |            34                   0.829083                     72            |
 |            35                   0.833260                     30            |
 |            36                   0.849761                     72            |
 +----------------------------------------------------------------------------+
 | The b-vectors are chosen automatically                                     |
 | The following shells are used:   1                                         |
 +----------------------------------------------------------------------------+
 |                        Shell   # Nearest-Neighbours                        |
 |                        -----   --------------------                        |
 |                          1               8                                 |
 +----------------------------------------------------------------------------+
 | Completeness relation is fully satisfied [Eq. (B1), PRB 56, 12847 (1997)]  |
 +----------------------------------------------------------------------------+
 |                  b_k Vectors (Ang^-1) and Weights (Ang^2)                  |
 |                  ----------------------------------------                  |
 |            No.         b_k(x)      b_k(y)      b_k(z)        w_b           |
 |            ---        --------------------------------     --------        |
 |             1        -0.083326    0.083326   -0.083326    18.003191        |
 |             2         0.083326    0.083326    0.083326    18.003191        |
 |             3        -0.083326   -0.083326    0.083326    18.003191        |
 |             4        -0.083326    0.083326    0.083326    18.003191        |
 |             5         0.083326   -0.083326    0.083326    18.003191        |
 |             6        -0.083326   -0.083326   -0.083326    18.003191        |
 |             7         0.083326    0.083326   -0.083326    18.003191        |
 |             8         0.083326   -0.083326   -0.083326    18.003191        |
 +----------------------------------------------------------------------------+
 |                           b_k Directions (Ang^-1)                          |
 |                           -----------------------                          |
 |            No.           x           y           z                         |
 |            ---        --------------------------------                     |
 |             1        -0.083326    0.083326   -0.083326                     |
 |             2         0.083326    0.083326    0.083326                     |
 |             3        -0.083326   -0.083326    0.083326                     |
 |             4        -0.083326    0.083326    0.083326                     |
 +----------------------------------------------------------------------------+
  
 Time to get kmesh              0.719 (sec)
 *============================================================================*
 |                              MEMORY ESTIMATE                               |
 |         Maximum RAM allocated during each phase of the calculation         |
 *============================================================================*
 |                            Wannierise:            7.00 Mb                  |
 |                          plot_wannier:            7.00 Mb                  |
 *----------------------------------------------------------------------------*
  
 Starting a new Wannier90 calculation ...


 Reading overlaps from mp-23193.mmn    :  Created on  8Apr2024 at 15:15:37

 Reading projections from mp-23193.amn :  Created on  8Apr2024 at 15:15:35  with SCDM

 Time to read overlaps          0.086 (sec)

 Writing checkpoint file mp-23193.chk... done

 
 *------------------------------- WANNIERISE ---------------------------------*
 +--------------------------------------------------------------------+<-- CONV
 | Iter  Delta Spread     RMS Gradient      Spread (Ang^2)      Time  |<-- CONV
 +--------------------------------------------------------------------+<-- CONV
 
 ------------------------------------------------------------------------------
 Initial State
  WF centre and spread    1  (  0.000027,  3.142214,  0.000122 )     1.49020042
  WF centre and spread    2  ( -3.142083, -0.000262,  0.000166 )     1.48987442
  WF centre and spread    3  (  0.000111, -0.000047, -3.142206 )     1.49005322
  Sum of centres and spreads ( -3.141945,  3.141905, -3.141918 )     4.47012806
 
      0     0.447E+01     0.0000000000        4.4701304312       0.00  <-- CONV
        O_D=      0.0105947 O_OD=      0.0217661 O_TOT=      4.4701304 <-- SPRD
 ------------------------------------------------------------------------------
 Cycle:      1
  WF centre and spread    1  (  0.000010,  3.141976,  0.000041 )     1.48191387
  WF centre and spread    2  ( -3.141933, -0.000075,  0.000048 )     1.48184395
  WF centre and spread    3  (  0.000037, -0.000019, -3.141975 )     1.48207769
  Sum of centres and spreads ( -3.141886,  3.141883, -3.141886 )     4.44583551
 
      1    -0.243E-01     0.0396136793        4.4458378750       0.00  <-- CONV
        O_D=      0.0013157 O_OD=      0.0067525 O_TOT=      4.4458379 <-- SPRD
 Delta: O_D= -0.9278930E-02 O_OD= -0.1501363E-01 O_TOT= -0.2429256E-01 <-- DLTA
 ------------------------------------------------------------------------------
 Cycle:      2
  WF centre and spread    1  (  0.000008,  3.141949,  0.000031 )     1.48146696
  WF centre and spread    2  ( -3.141918, -0.000055,  0.000035 )     1.48140634
  WF centre and spread    3  (  0.000029, -0.000015, -3.141948 )     1.48163244
  Sum of centres and spreads ( -3.141882,  3.141880, -3.141882 )     4.44450573
 
      2    -0.133E-02     0.0192491057        4.4445081039       0.01  <-- CONV
        O_D=      0.0007930 O_OD=      0.0059454 O_TOT=      4.4445081 <-- SPRD
 Delta: O_D= -0.5226967E-03 O_OD= -0.8070744E-03 O_TOT= -0.1329771E-02 <-- DLTA
 ------------------------------------------------------------------------------
 Cycle:      3
  WF centre and spread    1  (  0.000004,  3.141913,  0.000016 )     1.48099171
  WF centre and spread    2  ( -3.141895, -0.000029,  0.000018 )     1.48095415
  WF centre and spread    3  (  0.000015, -0.000008, -3.141912 )     1.48119666
  Sum of centres and spreads ( -3.141876,  3.141876, -3.141877 )     4.44314253
 
      3    -0.136E-02     0.0235215007        4.4431448946       0.01  <-- CONV
        O_D=      0.0002983 O_OD=      0.0050770 O_TOT=      4.4431449 <-- SPRD
 Delta: O_D= -0.4947815E-03 O_OD= -0.8684278E-03 O_TOT= -0.1363209E-02 <-- DLTA
 ------------------------------------------------------------------------------
 Cycle:      4
  WF centre and spread    1  (  0.000002,  3.141894,  0.000009 )     1.48080189
  WF centre and spread    2  ( -3.141884, -0.000016,  0.000010 )     1.48077427
  WF centre and spread    3  (  0.000008, -0.000004, -3.141893 )     1.48101660
  Sum of centres and spreads ( -3.141874,  3.141874, -3.141875 )     4.44259276
 
      4    -0.550E-03     0.0161886215        4.4425951307       0.01  <-- CONV
        O_D=      0.0001314 O_OD=      0.0046941 O_TOT=      4.4425951 <-- SPRD
 Delta: O_D= -0.1668803E-03 O_OD= -0.3828835E-03 O_TOT= -0.5497638E-03 <-- DLTA
 ------------------------------------------------------------------------------
 Cycle:      5
  WF centre and spread    1  (  0.000001,  3.141881,  0.000004 )     1.48069843
  WF centre and spread    2  ( -3.141876, -0.000006,  0.000004 )     1.48067627
  WF centre and spread    3  (  0.000004, -0.000002, -3.141880 )     1.48091752
  Sum of centres and spreads ( -3.141872,  3.141872, -3.141873 )     4.44229222
 
      5    -0.301E-03     0.0114450710        4.4422945894       0.01  <-- CONV
        O_D=      0.0000449 O_OD=      0.0044800 O_TOT=      4.4422946 <-- SPRD
 Delta: O_D= -0.8643327E-04 O_OD= -0.2141080E-03 O_TOT= -0.3005413E-03 <-- DLTA
 ------------------------------------------------------------------------------
 Cycle:      6
  WF centre and spread    1  (  0.000001,  3.141875,  0.000001 )     1.48066277
  WF centre and spread    2  ( -3.141873, -0.000003,  0.000002 )     1.48064200
  WF centre and spread    3  (  0.000002, -0.000001, -3.141875 )     1.48088439
  Sum of centres and spreads ( -3.141871,  3.141872, -3.141872 )     4.44218916
 
      6    -0.103E-03     0.0076760817        4.4421915274       0.02  <-- CONV
        O_D=      0.0000129 O_OD=      0.0044090 O_TOT=      4.4421915 <-- SPRD
 Delta: O_D= -0.3205933E-04 O_OD= -0.7100273E-04 O_TOT= -0.1030621E-03 <-- DLTA
 ------------------------------------------------------------------------------
 Cycle:      7
  WF centre and spread    1  (  0.000001,  3.141875,  0.000001 )     1.48065494
  WF centre and spread    2  ( -3.141873, -0.000003,  0.000002 )     1.48063469
  WF centre and spread    3  (  0.000002, -0.000001, -3.141875 )     1.48087701
  Sum of centres and spreads ( -3.141871,  3.141872, -3.141872 )     4.44216664
 
      7    -0.225E-04     0.0039530806        4.4421690120       0.02  <-- CONV
        O_D=      0.0000058 O_OD=      0.0043936 O_TOT=      4.4421690 <-- SPRD
 Delta: O_D= -0.7127852E-05 O_OD= -0.1538746E-04 O_TOT= -0.2251532E-04 <-- DLTA
 ------------------------------------------------------------------------------
 Cycle:      8
  WF centre and spread    1  (  0.000001,  3.141874,  0.000001 )     1.48065085
  WF centre and spread    2  ( -3.141873, -0.000002,  0.000001 )     1.48063080
  WF centre and spread    3  (  0.000002, -0.000001, -3.141874 )     1.48087305
  Sum of centres and spreads ( -3.141871,  3.141872, -3.141872 )     4.44215470
 
      8    -0.119E-04     0.0024400598        4.4421570738       0.02  <-- CONV
        O_D=      0.0000018 O_OD=      0.0043856 O_TOT=      4.4421571 <-- SPRD
 Delta: O_D= -0.3931993E-05 O_OD= -0.8006243E-05 O_TOT= -0.1193824E-04 <-- DLTA
 ------------------------------------------------------------------------------
 Cycle:      9
  WF centre and spread    1  (  0.000001,  3.141874,  0.000001 )     1.48064968
  WF centre and spread    2  ( -3.141872, -0.000002,  0.000001 )     1.48062968
  WF centre and spread    3  (  0.000001, -0.000001, -3.141874 )     1.48087190
  Sum of centres and spreads ( -3.141870,  3.141872, -3.141871 )     4.44215126
 
      9    -0.344E-05     0.0013785523        4.4421536292       0.02  <-- CONV
        O_D=      0.0000007 O_OD=      0.0043833 O_TOT=      4.4421536 <-- SPRD
 Delta: O_D= -0.1157856E-05 O_OD= -0.2286785E-05 O_TOT= -0.3444641E-05 <-- DLTA
 ------------------------------------------------------------------------------
 Cycle:     10
  WF centre and spread    1  (  0.000001,  3.141873,  0.000001 )     1.48064919
  WF centre and spread    2  ( -3.141872, -0.000002,  0.000001 )     1.48062922
  WF centre and spread    3  (  0.000001, -0.000000, -3.141873 )     1.48087140
  Sum of centres and spreads ( -3.141870,  3.141871, -3.141871 )     4.44214981
 
     10    -0.145E-05     0.0008217734        4.4421521766       0.03  <-- CONV
        O_D=      0.0000002 O_OD=      0.0043823 O_TOT=      4.4421522 <-- SPRD
 Delta: O_D= -0.4261809E-06 O_OD= -0.1026344E-05 O_TOT= -0.1452525E-05 <-- DLTA
 ------------------------------------------------------------------------------
 Cycle:     11
  WF centre and spread    1  (  0.000001,  3.141873,  0.000001 )     1.48064900
  WF centre and spread    2  ( -3.141872, -0.000001,  0.000001 )     1.48062906
  WF centre and spread    3  (  0.000001, -0.000000, -3.141873 )     1.48087122
  Sum of centres and spreads ( -3.141870,  3.141871, -3.141871 )     4.44214928
 
     11    -0.526E-06     0.0005452246        4.4421516510       0.03  <-- CONV
        O_D=      0.0000001 O_OD=      0.0043819 O_TOT=      4.4421517 <-- SPRD
 Delta: O_D= -0.1265513E-06 O_OD= -0.3990579E-06 O_TOT= -0.5256092E-06 <-- DLTA
 ------------------------------------------------------------------------------
 Cycle:     12
  WF centre and spread    1  (  0.000000,  3.141873,  0.000001 )     1.48064890
  WF centre and spread    2  ( -3.141872, -0.000001,  0.000001 )     1.48062899
  WF centre and spread    3  (  0.000001, -0.000000, -3.141872 )     1.48087112
  Sum of centres and spreads ( -3.141870,  3.141871, -3.141871 )     4.44214901
 
     12    -0.271E-06     0.0003150710        4.4421513801       0.03  <-- CONV
        O_D=      0.0000001 O_OD=      0.0043817 O_TOT=      4.4421514 <-- SPRD
 Delta: O_D= -0.4747027E-07 O_OD= -0.2234516E-06 O_TOT= -0.2709218E-06 <-- DLTA
 ------------------------------------------------------------------------------
 Cycle:     13
  WF centre and spread    1  (  0.000000,  3.141873,  0.000001 )     1.48064887
  WF centre and spread    2  ( -3.141872, -0.000001,  0.000001 )     1.48062896
  WF centre and spread    3  (  0.000001, -0.000000, -3.141872 )     1.48087109
  Sum of centres and spreads ( -3.141870,  3.141871, -3.141871 )     4.44214891
 
     13    -0.962E-07     0.0002687245        4.4421512839       0.03  <-- CONV
        O_D=      0.0000000 O_OD=      0.0043816 O_TOT=      4.4421513 <-- SPRD
 Delta: O_D= -0.2605927E-07 O_OD= -0.7014185E-07 O_TOT= -0.9620112E-07 <-- DLTA
 ------------------------------------------------------------------------------
 Cycle:     14
  WF centre and spread    1  (  0.000000,  3.141872,  0.000000 )     1.48064882
  WF centre and spread    2  ( -3.141872, -0.000001,  0.000001 )     1.48062893
  WF centre and spread    3  (  0.000001, -0.000000, -3.141872 )     1.48087106
  Sum of centres and spreads ( -3.141870,  3.141871, -3.141871 )     4.44214882
 
     14    -0.934E-07     0.0001733505        4.4421511905       0.04  <-- CONV
        O_D=      0.0000000 O_OD=      0.0043815 O_TOT=      4.4421512 <-- SPRD
 Delta: O_D= -0.1390007E-07 O_OD= -0.7946214E-07 O_TOT= -0.9336221E-07 <-- DLTA
 ------------------------------------------------------------------------------
 Cycle:     15
  WF centre and spread    1  (  0.000000,  3.141872,  0.000000 )     1.48064879
  WF centre and spread    2  ( -3.141872, -0.000001,  0.000000 )     1.48062891
  WF centre and spread    3  (  0.000001, -0.000000, -3.141872 )     1.48087105
  Sum of centres and spreads ( -3.141870,  3.141871, -3.141871 )     4.44214875
 
     15    -0.702E-07     0.0001755827        4.4421511203       0.04  <-- CONV
        O_D=      0.0000000 O_OD=      0.0043815 O_TOT=      4.4421511 <-- SPRD
 Delta: O_D= -0.9422580E-08 O_OD= -0.6082151E-07 O_TOT= -0.7024409E-07 <-- DLTA
 ------------------------------------------------------------------------------
 Cycle:     16
  WF centre and spread    1  (  0.000000,  3.141872,  0.000000 )     1.48064877
  WF centre and spread    2  ( -3.141871, -0.000000,  0.000000 )     1.48062888
  WF centre and spread    3  (  0.000001, -0.000000, -3.141872 )     1.48087105
  Sum of centres and spreads ( -3.141870,  3.141871, -3.141871 )     4.44214869
 
     16    -0.597E-07     0.0001434911        4.4421510606       0.04  <-- CONV
        O_D=      0.0000000 O_OD=      0.0043814 O_TOT=      4.4421511 <-- SPRD
 Delta: O_D= -0.6880283E-08 O_OD= -0.5280980E-07 O_TOT= -0.5969008E-07 <-- DLTA
 ------------------------------------------------------------------------------
 Cycle:     17
  WF centre and spread    1  (  0.000000,  3.141872,  0.000000 )     1.48064875
  WF centre and spread    2  ( -3.141871, -0.000000,  0.000000 )     1.48062885
  WF centre and spread    3  (  0.000001, -0.000000, -3.141871 )     1.48087105
  Sum of centres and spreads ( -3.141870,  3.141871, -3.141871 )     4.44214865
 
     17    -0.410E-07     0.0001307141        4.4421510196       0.04  <-- CONV
        O_D=      0.0000000 O_OD=      0.0043814 O_TOT=      4.4421510 <-- SPRD
 Delta: O_D= -0.5568061E-08 O_OD= -0.3542202E-07 O_TOT= -0.4099008E-07 <-- DLTA
 ------------------------------------------------------------------------------
 Cycle:     18
  WF centre and spread    1  (  0.000000,  3.141871, -0.000000 )     1.48064874
  WF centre and spread    2  ( -3.141871, -0.000000,  0.000000 )     1.48062884
  WF centre and spread    3  (  0.000001, -0.000000, -3.141871 )     1.48087105
  Sum of centres and spreads ( -3.141870,  3.141871, -3.141871 )     4.44214862
 
     18    -0.259E-07     0.0000976521        4.4421509938       0.04  <-- CONV
        O_D=      0.0000000 O_OD=      0.0043813 O_TOT=      4.4421510 <-- SPRD
 Delta: O_D= -0.2730628E-08 O_OD= -0.2313937E-07 O_TOT= -0.2587000E-07 <-- DLTA
 ------------------------------------------------------------------------------
 Cycle:     19
  WF centre and spread    1  (  0.000000,  3.141871, -0.000000 )     1.48064873
  WF centre and spread    2  ( -3.141871, -0.000000,  0.000000 )     1.48062883
  WF centre and spread    3  (  0.000001, -0.000000, -3.141871 )     1.48087105
  Sum of centres and spreads ( -3.141870,  3.141871, -3.141871 )     4.44214861
 
     19    -0.129E-07     0.0000955534        4.4421509809       0.05  <-- CONV
        O_D=      0.0000000 O_OD=      0.0043813 O_TOT=      4.4421510 <-- SPRD
 Delta: O_D= -0.2608434E-08 O_OD= -0.1024813E-07 O_TOT= -0.1285657E-07 <-- DLTA
 ------------------------------------------------------------------------------
 Cycle:     20
  WF centre and spread    1  (  0.000000,  3.141871,  0.000000 )     1.48064872
  WF centre and spread    2  ( -3.141871, -0.000000,  0.000000 )     1.48062883
  WF centre and spread    3  (  0.000001, -0.000000, -3.141871 )     1.48087105
  Sum of centres and spreads ( -3.141870,  3.141871, -3.141871 )     4.44214860
 
     20    -0.144E-07     0.0000656877        4.4421509665       0.05  <-- CONV
        O_D=      0.0000000 O_OD=      0.0043813 O_TOT=      4.4421510 <-- SPRD
 Delta: O_D= -0.9305457E-10 O_OD= -0.1431029E-07 O_TOT= -0.1440334E-07 <-- DLTA
 ------------------------------------------------------------------------------
 Cycle:     21
  WF centre and spread    1  (  0.000000,  3.141872,  0.000000 )     1.48064871
  WF centre and spread    2  ( -3.141871, -0.000000,  0.000000 )     1.48062882
  WF centre and spread    3  (  0.000001, -0.000000, -3.141871 )     1.48087105
  Sum of centres and spreads ( -3.141870,  3.141871, -3.141871 )     4.44214858
 
     21    -0.214E-07     0.0000700040        4.4421509451       0.05  <-- CONV
        O_D=      0.0000000 O_OD=      0.0043813 O_TOT=      4.4421509 <-- SPRD
 Delta: O_D=  0.1654746E-08 O_OD= -0.2301648E-07 O_TOT= -0.2136173E-07 <-- DLTA
 ------------------------------------------------------------------------------
 Cycle:     22
  WF centre and spread    1  (  0.000000,  3.141872,  0.000000 )     1.48064869
  WF centre and spread    2  ( -3.141871, -0.000000,  0.000000 )     1.48062879
  WF centre and spread    3  (  0.000001, -0.000000, -3.141871 )     1.48087106
  Sum of centres and spreads ( -3.141870,  3.141871, -3.141871 )     4.44214853
 
     22    -0.417E-07     0.0000842672        4.4421509034       0.05  <-- CONV
        O_D=      0.0000000 O_OD=      0.0043812 O_TOT=      4.4421509 <-- SPRD
 Delta: O_D=  0.1083623E-07 O_OD= -0.5252886E-07 O_TOT= -0.4169263E-07 <-- DLTA
 ------------------------------------------------------------------------------
 Cycle:     23
  WF centre and spread    1  (  0.000000,  3.141872,  0.000000 )     1.48064868
  WF centre and spread    2  ( -3.141871, -0.000000,  0.000000 )     1.48062878
  WF centre and spread    3  (  0.000001, -0.000000, -3.141871 )     1.48087105
  Sum of centres and spreads ( -3.141870,  3.141871, -3.141871 )     4.44214851
 
     23    -0.291E-07     0.0001592597        4.4421508743       0.06  <-- CONV
        O_D=      0.0000000 O_OD=      0.0043812 O_TOT=      4.4421509 <-- SPRD
 Delta: O_D= -0.9382914E-08 O_OD= -0.1974084E-07 O_TOT= -0.2912375E-07 <-- DLTA
 ------------------------------------------------------------------------------
 Cycle:     24
  WF centre and spread    1  (  0.000000,  3.141872,  0.000000 )     1.48064867
  WF centre and spread    2  ( -3.141871, -0.000000,  0.000000 )     1.48062877
  WF centre and spread    3  (  0.000001, -0.000000, -3.141871 )     1.48087104
  Sum of centres and spreads ( -3.141870,  3.141871, -3.141871 )     4.44214849
 
     24    -0.177E-07     0.0000750922        4.4421508566       0.06  <-- CONV
        O_D=      0.0000000 O_OD=      0.0043812 O_TOT=      4.4421509 <-- SPRD
 Delta: O_D= -0.7534773E-09 O_OD= -0.1694852E-07 O_TOT= -0.1770200E-07 <-- DLTA
 ------------------------------------------------------------------------------
 Cycle:     25
  WF centre and spread    1  (  0.000000,  3.141872,  0.000000 )     1.48064867
  WF centre and spread    2  ( -3.141871, -0.000000,  0.000000 )     1.48062876
  WF centre and spread    3  (  0.000001, -0.000000, -3.141871 )     1.48087104
  Sum of centres and spreads ( -3.141870,  3.141871, -3.141871 )     4.44214846
 
     25    -0.260E-07     0.0000897760        4.4421508306       0.06  <-- CONV
        O_D=      0.0000000 O_OD=      0.0043812 O_TOT=      4.4421508 <-- SPRD
 Delta: O_D=  0.7725275E-09 O_OD= -0.2673955E-07 O_TOT= -0.2596703E-07 <-- DLTA
 ------------------------------------------------------------------------------
 Cycle:     26
  WF centre and spread    1  (  0.000000,  3.141872,  0.000000 )     1.48064866
  WF centre and spread    2  ( -3.141871, -0.000000,  0.000000 )     1.48062875
  WF centre and spread    3  (  0.000001, -0.000000, -3.141871 )     1.48087103
  Sum of centres and spreads ( -3.141870,  3.141871, -3.141871 )     4.44214844
 
     26    -0.167E-07     0.0000939042        4.4421508140       0.06  <-- CONV
        O_D=      0.0000000 O_OD=      0.0043812 O_TOT=      4.4421508 <-- SPRD
 Delta: O_D=  0.6905075E-09 O_OD= -0.1737621E-07 O_TOT= -0.1668571E-07 <-- DLTA
 ------------------------------------------------------------------------------
 Cycle:     27
  WF centre and spread    1  (  0.000000,  3.141872,  0.000000 )     1.48064864
  WF centre and spread    2  ( -3.141871, -0.000000,  0.000000 )     1.48062874
  WF centre and spread    3  (  0.000001, -0.000000, -3.141871 )     1.48087102
  Sum of centres and spreads ( -3.141870,  3.141871, -3.141871 )     4.44214841
 
     27    -0.366E-07     0.0000766581        4.4421507774       0.07  <-- CONV
        O_D=      0.0000000 O_OD=      0.0043811 O_TOT=      4.4421508 <-- SPRD
 Delta: O_D=  0.3077786E-08 O_OD= -0.3967772E-07 O_TOT= -0.3659993E-07 <-- DLTA
 ------------------------------------------------------------------------------
 Cycle:     28
  WF centre and spread    1  (  0.000000,  3.141871,  0.000000 )     1.48064861
  WF centre and spread    2  ( -3.141871, -0.000000,  0.000000 )     1.48062873
  WF centre and spread    3  (  0.000001, -0.000000, -3.141871 )     1.48087100
  Sum of centres and spreads ( -3.141870,  3.141871, -3.141871 )     4.44214833
 
     28    -0.745E-07     0.0001201419        4.4421507028       0.07  <-- CONV
        O_D=      0.0000000 O_OD=      0.0043810 O_TOT=      4.4421507 <-- SPRD
 Delta: O_D=  0.7012943E-08 O_OD= -0.8156078E-07 O_TOT= -0.7454784E-07 <-- DLTA
 ------------------------------------------------------------------------------
 Cycle:     29
  WF centre and spread    1  (  0.000000,  3.141871,  0.000000 )     1.48064859
  WF centre and spread    2  ( -3.141871, -0.000000,  0.000000 )     1.48062871
  WF centre and spread    3  (  0.000001, -0.000000, -3.141871 )     1.48087099
  Sum of centres and spreads ( -3.141870,  3.141871, -3.141871 )     4.44214829
 
     29    -0.413E-07     0.0001832584        4.4421506615       0.07  <-- CONV
        O_D=      0.0000000 O_OD=      0.0043810 O_TOT=      4.4421507 <-- SPRD
 Delta: O_D= -0.9426603E-08 O_OD= -0.3190926E-07 O_TOT= -0.4133587E-07 <-- DLTA
 ------------------------------------------------------------------------------
 Cycle:     30
  WF centre and spread    1  (  0.000000,  3.141871,  0.000000 )     1.48064858
  WF centre and spread    2  ( -3.141871, -0.000000,  0.000000 )     1.48062868
  WF centre and spread    3  (  0.000001, -0.000000, -3.141871 )     1.48087100
  Sum of centres and spreads ( -3.141870,  3.141871, -3.141871 )     4.44214826
 
     30    -0.321E-07     0.0000977112        4.4421506293       0.07  <-- CONV
        O_D=      0.0000000 O_OD=      0.0043810 O_TOT=      4.4421506 <-- SPRD
 Delta: O_D= -0.2592449E-08 O_OD= -0.2955171E-07 O_TOT= -0.3214416E-07 <-- DLTA
 ------------------------------------------------------------------------------
 Cycle:     31
  WF centre and spread    1  (  0.000000,  3.141872,  0.000000 )     1.48064857
  WF centre and spread    2  ( -3.141871, -0.000000,  0.000000 )     1.48062866
  WF centre and spread    3  (  0.000001, -0.000000, -3.141871 )     1.48087101
  Sum of centres and spreads ( -3.141870,  3.141871, -3.141871 )     4.44214824
 
     31    -0.220E-07     0.0000945472        4.4421506073       0.07  <-- CONV
        O_D=      0.0000000 O_OD=      0.0043810 O_TOT=      4.4421506 <-- SPRD
 Delta: O_D= -0.1108947E-08 O_OD= -0.2088918E-07 O_TOT= -0.2199813E-07 <-- DLTA
 ------------------------------------------------------------------------------
 Cycle:     32
  WF centre and spread    1  (  0.000000,  3.141872,  0.000000 )     1.48064856
  WF centre and spread    2  ( -3.141871, -0.000000,  0.000000 )     1.48062864
  WF centre and spread    3  (  0.000001, -0.000000, -3.141871 )     1.48087102
  Sum of centres and spreads ( -3.141870,  3.141871, -3.141871 )     4.44214821
 
     32    -0.261E-07     0.0000935377        4.4421505812       0.08  <-- CONV
        O_D=      0.0000000 O_OD=      0.0043809 O_TOT=      4.4421506 <-- SPRD
 Delta: O_D=  0.5113898E-09 O_OD= -0.2664371E-07 O_TOT= -0.2613232E-07 <-- DLTA
 ------------------------------------------------------------------------------
 Cycle:     33
  WF centre and spread    1  (  0.000000,  3.141872,  0.000000 )     1.48064855
  WF centre and spread    2  ( -3.141871, -0.000000,  0.000000 )     1.48062862
  WF centre and spread    3  (  0.000001, -0.000000, -3.141871 )     1.48087102
  Sum of centres and spreads ( -3.141870,  3.141871, -3.141871 )     4.44214819
 
     33    -0.209E-07     0.0000871379        4.4421505603       0.08  <-- CONV
        O_D=      0.0000000 O_OD=      0.0043809 O_TOT=      4.4421506 <-- SPRD
 Delta: O_D= -0.2004563E-10 O_OD= -0.2085688E-07 O_TOT= -0.2087693E-07 <-- DLTA
 ------------------------------------------------------------------------------
 Cycle:     34
  WF centre and spread    1  (  0.000000,  3.141872,  0.000000 )     1.48064853
  WF centre and spread    2  ( -3.141871, -0.000000,  0.000000 )     1.48062861
  WF centre and spread    3  (  0.000001, -0.000000, -3.141871 )     1.48087102
  Sum of centres and spreads ( -3.141870,  3.141871, -3.141871 )     4.44214817
 
     34    -0.230E-07     0.0000700343        4.4421505373       0.08  <-- CONV
        O_D=      0.0000000 O_OD=      0.0043809 O_TOT=      4.4421505 <-- SPRD
 Delta: O_D=  0.4815086E-08 O_OD= -0.2778873E-07 O_TOT= -0.2297364E-07 <-- DLTA
 ------------------------------------------------------------------------------
 Cycle:     35
  WF centre and spread    1  (  0.000000,  3.141872,  0.000000 )     1.48064853
  WF centre and spread    2  ( -3.141871, -0.000000,  0.000000 )     1.48062861
  WF centre and spread    3  (  0.000001, -0.000000, -3.141871 )     1.48087101
  Sum of centres and spreads ( -3.141870,  3.141871, -3.141871 )     4.44214815
 
     35    -0.202E-07     0.0001299531        4.4421505172       0.08  <-- CONV
        O_D=      0.0000000 O_OD=      0.0043809 O_TOT=      4.4421505 <-- SPRD
 Delta: O_D= -0.5084730E-08 O_OD= -0.1506840E-07 O_TOT= -0.2015313E-07 <-- DLTA
 ------------------------------------------------------------------------------
 Cycle:     36
  WF centre and spread    1  (  0.000000,  3.141872,  0.000000 )     1.48064852
  WF centre and spread    2  ( -3.141871, -0.000000,  0.000000 )     1.48062860
  WF centre and spread    3  (  0.000001, -0.000000, -3.141871 )     1.48087101
  Sum of centres and spreads ( -3.141870,  3.141871, -3.141871 )     4.44214813
 
     36    -0.181E-07     0.0000705785        4.4421504991       0.09  <-- CONV
        O_D=      0.0000000 O_OD=      0.0043808 O_TOT=      4.4421505 <-- SPRD
 Delta: O_D= -0.3427185E-09 O_OD= -0.1772591E-07 O_TOT= -0.1806863E-07 <-- DLTA
 ------------------------------------------------------------------------------
 Cycle:     37
  WF centre and spread    1  (  0.000000,  3.141872,  0.000000 )     1.48064852
  WF centre and spread    2  ( -3.141871, -0.000000,  0.000000 )     1.48062860
  WF centre and spread    3  (  0.000001, -0.000000, -3.141871 )     1.48087099
  Sum of centres and spreads ( -3.141870,  3.141871, -3.141871 )     4.44214811
 
     37    -0.229E-07     0.0000751716        4.4421504762       0.09  <-- CONV
        O_D=      0.0000000 O_OD=      0.0043808 O_TOT=      4.4421505 <-- SPRD
 Delta: O_D=  0.6205969E-09 O_OD= -0.2356264E-07 O_TOT= -0.2294205E-07 <-- DLTA
 ------------------------------------------------------------------------------
 Cycle:     38
  WF centre and spread    1  (  0.000000,  3.141872,  0.000000 )     1.48064851
  WF centre and spread    2  ( -3.141871, -0.000000,  0.000000 )     1.48062860
  WF centre and spread    3  (  0.000001, -0.000000, -3.141871 )     1.48087098
  Sum of centres and spreads ( -3.141870,  3.141871, -3.141871 )     4.44214808
 
     38    -0.261E-07     0.0000910772        4.4421504501       0.09  <-- CONV
        O_D=      0.0000000 O_OD=      0.0043808 O_TOT=      4.4421505 <-- SPRD
 Delta: O_D=  0.2099054E-08 O_OD= -0.2818433E-07 O_TOT= -0.2608528E-07 <-- DLTA
 ------------------------------------------------------------------------------
 Cycle:     39
  WF centre and spread    1  (  0.000000,  3.141872,  0.000000 )     1.48064849
  WF centre and spread    2  ( -3.141871, -0.000000,  0.000000 )     1.48062859
  WF centre and spread    3  (  0.000001, -0.000000, -3.141871 )     1.48087096
  Sum of centres and spreads ( -3.141870,  3.141871, -3.141871 )     4.44214805
 
     39    -0.327E-07     0.0001002969        4.4421504174       0.09  <-- CONV
        O_D=      0.0000000 O_OD=      0.0043808 O_TOT=      4.4421504 <-- SPRD
 Delta: O_D=  0.1741115E-08 O_OD= -0.3440596E-07 O_TOT= -0.3266484E-07 <-- DLTA
 ------------------------------------------------------------------------------
 Cycle:     40
  WF centre and spread    1  (  0.000000,  3.141872,  0.000000 )     1.48064847
  WF centre and spread    2  ( -3.141871, -0.000000,  0.000000 )     1.48062858
  WF centre and spread    3  (  0.000001, -0.000000, -3.141871 )     1.48087096
  Sum of centres and spreads ( -3.141870,  3.141871, -3.141871 )     4.44214801
 
     40    -0.379E-07     0.0000977457        4.4421503796       0.09  <-- CONV
        O_D=      0.0000000 O_OD=      0.0043807 O_TOT=      4.4421504 <-- SPRD
 Delta: O_D=  0.8732665E-08 O_OD= -0.4659395E-07 O_TOT= -0.3786128E-07 <-- DLTA
 ------------------------------------------------------------------------------
 Cycle:     41
  WF centre and spread    1  (  0.000000,  3.141872,  0.000000 )     1.48064846
  WF centre and spread    2  ( -3.141871, -0.000000,  0.000000 )     1.48062856
  WF centre and spread    3  (  0.000001, -0.000000, -3.141871 )     1.48087095
  Sum of centres and spreads ( -3.141870,  3.141871, -3.141871 )     4.44214797
 
     41    -0.417E-07     0.0001729380        4.4421503379       0.10  <-- CONV
        O_D=      0.0000000 O_OD=      0.0043807 O_TOT=      4.4421503 <-- SPRD
 Delta: O_D= -0.8296417E-08 O_OD= -0.3336461E-07 O_TOT= -0.4166103E-07 <-- DLTA
 ------------------------------------------------------------------------------
 Cycle:     42
  WF centre and spread    1  (  0.000000,  3.141872,  0.000000 )     1.48064844
  WF centre and spread    2  ( -3.141871, -0.000000,  0.000000 )     1.48062853
  WF centre and spread    3  (  0.000001, -0.000000, -3.141871 )     1.48087096
  Sum of centres and spreads ( -3.141870,  3.141871, -3.141871 )     4.44214793
 
     42    -0.388E-07     0.0001013230        4.4421502991       0.10  <-- CONV
        O_D=      0.0000000 O_OD=      0.0043806 O_TOT=      4.4421503 <-- SPRD
 Delta: O_D= -0.1008559E-08 O_OD= -0.3782881E-07 O_TOT= -0.3883737E-07 <-- DLTA
 ------------------------------------------------------------------------------
 Cycle:     43
  WF centre and spread    1  (  0.000000,  3.141872,  0.000000 )     1.48064843
  WF centre and spread    2  ( -3.141871, -0.000000,  0.000000 )     1.48062850
  WF centre and spread    3  (  0.000001, -0.000000, -3.141871 )     1.48087097
  Sum of centres and spreads ( -3.141870,  3.141871, -3.141871 )     4.44214790
 
     43    -0.282E-07     0.0001134362        4.4421502708       0.10  <-- CONV
        O_D=      0.0000000 O_OD=      0.0043806 O_TOT=      4.4421503 <-- SPRD
 Delta: O_D= -0.3232694E-08 O_OD= -0.2501676E-07 O_TOT= -0.2824945E-07 <-- DLTA
 ------------------------------------------------------------------------------
 Cycle:     44
  WF centre and spread    1  (  0.000000,  3.141872,  0.000000 )     1.48064842
  WF centre and spread    2  ( -3.141871, -0.000000,  0.000000 )     1.48062849
  WF centre and spread    3  (  0.000001, -0.000000, -3.141871 )     1.48087098
  Sum of centres and spreads ( -3.141870,  3.141871, -3.141871 )     4.44214788
 
     44    -0.219E-07     0.0000915481        4.4421502490       0.10  <-- CONV
        O_D=      0.0000000 O_OD=      0.0043806 O_TOT=      4.4421502 <-- SPRD
 Delta: O_D= -0.5457333E-09 O_OD= -0.2130504E-07 O_TOT= -0.2185078E-07 <-- DLTA
 ------------------------------------------------------------------------------
 Cycle:     45
  WF centre and spread    1  (  0.000000,  3.141872,  0.000000 )     1.48064841
  WF centre and spread    2  ( -3.141871, -0.000000,  0.000000 )     1.48062848
  WF centre and spread    3  (  0.000001, -0.000000, -3.141871 )     1.48087098
  Sum of centres and spreads ( -3.141870,  3.141871, -3.141871 )     4.44214786
 
     45    -0.184E-07     0.0000794014        4.4421502306       0.10  <-- CONV
        O_D=      0.0000000 O_OD=      0.0043806 O_TOT=      4.4421502 <-- SPRD
 Delta: O_D=  0.8777435E-09 O_OD= -0.1925248E-07 O_TOT= -0.1837474E-07 <-- DLTA
 ------------------------------------------------------------------------------
 Cycle:     46
  WF centre and spread    1  (  0.000000,  3.141872,  0.000000 )     1.48064839
  WF centre and spread    2  ( -3.141871, -0.000000,  0.000000 )     1.48062846
  WF centre and spread    3  (  0.000001, -0.000000, -3.141871 )     1.48087098
  Sum of centres and spreads ( -3.141870,  3.141871, -3.141871 )     4.44214784
 
     46    -0.193E-07     0.0000779615        4.4421502113       0.11  <-- CONV
        O_D=      0.0000000 O_OD=      0.0043806 O_TOT=      4.4421502 <-- SPRD
 Delta: O_D=  0.5990378E-08 O_OD= -0.2529048E-07 O_TOT= -0.1930010E-07 <-- DLTA
 ------------------------------------------------------------------------------
 Cycle:     47
  WF centre and spread    1  (  0.000000,  3.141872,  0.000000 )     1.48064839
  WF centre and spread    2  ( -3.141871, -0.000000,  0.000000 )     1.48062846
  WF centre and spread    3  (  0.000001, -0.000000, -3.141871 )     1.48087098
  Sum of centres and spreads ( -3.141870,  3.141871, -3.141871 )     4.44214782
 
     47    -0.221E-07     0.0001317006        4.4421501892       0.11  <-- CONV
        O_D=      0.0000000 O_OD=      0.0043805 O_TOT=      4.4421502 <-- SPRD
 Delta: O_D= -0.5634390E-08 O_OD= -0.1644785E-07 O_TOT= -0.2208224E-07 <-- DLTA
 ------------------------------------------------------------------------------
 Cycle:     48
  WF centre and spread    1  (  0.000000,  3.141872,  0.000000 )     1.48064838
  WF centre and spread    2  ( -3.141871, -0.000000,  0.000000 )     1.48062845
  WF centre and spread    3  (  0.000001, -0.000000, -3.141871 )     1.48087097
  Sum of centres and spreads ( -3.141870,  3.141871, -3.141871 )     4.44214780
 
     48    -0.194E-07     0.0000808180        4.4421501698       0.11  <-- CONV
        O_D=      0.0000000 O_OD=      0.0043805 O_TOT=      4.4421502 <-- SPRD
 Delta: O_D= -0.1329243E-09 O_OD= -0.1925891E-07 O_TOT= -0.1939184E-07 <-- DLTA
 ------------------------------------------------------------------------------
 Cycle:     49
  WF centre and spread    1  (  0.000000,  3.141872,  0.000000 )     1.48064838
  WF centre and spread    2  ( -3.141871, -0.000000,  0.000000 )     1.48062844
  WF centre and spread    3  (  0.000001, -0.000000, -3.141871 )     1.48087096
  Sum of centres and spreads ( -3.141870,  3.141871, -3.141871 )     4.44214778
 
     49    -0.197E-07     0.0000879789        4.4421501501       0.11  <-- CONV
        O_D=      0.0000000 O_OD=      0.0043805 O_TOT=      4.4421502 <-- SPRD
 Delta: O_D= -0.7344406E-09 O_OD= -0.1895621E-07 O_TOT= -0.1969065E-07 <-- DLTA
 ------------------------------------------------------------------------------
 Cycle:     50
  WF centre and spread    1  (  0.000000,  3.141872,  0.000000 )     1.48064837
  WF centre and spread    2  ( -3.141871, -0.000000,  0.000000 )     1.48062844
  WF centre and spread    3  (  0.000001, -0.000000, -3.141871 )     1.48087094
  Sum of centres and spreads ( -3.141870,  3.141871, -3.141871 )     4.44214775
 
     50    -0.272E-07     0.0000855271        4.4421501230       0.11  <-- CONV
        O_D=      0.0000000 O_OD=      0.0043805 O_TOT=      4.4421501 <-- SPRD
 Delta: O_D=  0.3738927E-08 O_OD= -0.3092431E-07 O_TOT= -0.2718538E-07 <-- DLTA
 ------------------------------------------------------------------------------
 Cycle:     51
  WF centre and spread    1  (  0.000000,  3.141872,  0.000000 )     1.48064835
  WF centre and spread    2  ( -3.141871, -0.000000,  0.000000 )     1.48062844
  WF centre and spread    3  (  0.000001, -0.000000, -3.141871 )     1.48087093
  Sum of centres and spreads ( -3.141870,  3.141871, -3.141871 )     4.44214772
 
     51    -0.321E-07     0.0001134810        4.4421500909       0.12  <-- CONV
        O_D=      0.0000000 O_OD=      0.0043804 O_TOT=      4.4421501 <-- SPRD
 Delta: O_D= -0.2471299E-09 O_OD= -0.3180479E-07 O_TOT= -0.3205192E-07 <-- DLTA
 ------------------------------------------------------------------------------
 Cycle:     52
  WF centre and spread    1  (  0.000000,  3.141872,  0.000000 )     1.48064834
  WF centre and spread    2  ( -3.141871, -0.000000,  0.000000 )     1.48062843
  WF centre and spread    3  (  0.000001, -0.000000, -3.141871 )     1.48087092
  Sum of centres and spreads ( -3.141870,  3.141871, -3.141871 )     4.44214769
 
     52    -0.334E-07     0.0000963598        4.4421500575       0.12  <-- CONV
        O_D=      0.0000000 O_OD=      0.0043804 O_TOT=      4.4421501 <-- SPRD
 Delta: O_D=  0.4615338E-08 O_OD= -0.3805941E-07 O_TOT= -0.3344407E-07 <-- DLTA
 ------------------------------------------------------------------------------
 Cycle:     53
  WF centre and spread    1  (  0.000000,  3.141872,  0.000000 )     1.48064832
  WF centre and spread    2  ( -3.141871, -0.000000,  0.000000 )     1.48062841
  WF centre and spread    3  (  0.000001, -0.000000, -3.141871 )     1.48087092
  Sum of centres and spreads ( -3.141870,  3.141871, -3.141871 )     4.44214765
 
     53    -0.342E-07     0.0001362652        4.4421500233       0.12  <-- CONV
        O_D=      0.0000000 O_OD=      0.0043804 O_TOT=      4.4421500 <-- SPRD
 Delta: O_D= -0.6348782E-08 O_OD= -0.2780275E-07 O_TOT= -0.3415153E-07 <-- DLTA
 ------------------------------------------------------------------------------
 Cycle:     54
  WF centre and spread    1  (  0.000000,  3.141872,  0.000000 )     1.48064831
  WF centre and spread    2  ( -3.141871, -0.000000,  0.000000 )     1.48062839
  WF centre and spread    3  (  0.000001, -0.000000, -3.141871 )     1.48087093
  Sum of centres and spreads ( -3.141870,  3.141871, -3.141871 )     4.44214763
 
     54    -0.263E-07     0.0000912567        4.4421499970       0.12  <-- CONV
        O_D=      0.0000000 O_OD=      0.0043803 O_TOT=      4.4421500 <-- SPRD
 Delta: O_D= -0.8805285E-09 O_OD= -0.2537474E-07 O_TOT= -0.2625527E-07 <-- DLTA
 ------------------------------------------------------------------------------
 Cycle:     55
  WF centre and spread    1  (  0.000000,  3.141872,  0.000000 )     1.48064830
  WF centre and spread    2  ( -3.141871, -0.000000,  0.000000 )     1.48062836
  WF centre and spread    3  (  0.000001, -0.000000, -3.141871 )     1.48087094
  Sum of centres and spreads ( -3.141870,  3.141871, -3.141871 )     4.44214760
 
     55    -0.273E-07     0.0001125568        4.4421499697       0.12  <-- CONV
        O_D=      0.0000000 O_OD=      0.0043803 O_TOT=      4.4421500 <-- SPRD
 Delta: O_D= -0.1572888E-08 O_OD= -0.2576608E-07 O_TOT= -0.2733897E-07 <-- DLTA
 ------------------------------------------------------------------------------
 Cycle:     56
  WF centre and spread    1  (  0.000000,  3.141872,  0.000000 )     1.48064829
  WF centre and spread    2  ( -3.141871, -0.000000,  0.000000 )     1.48062835
  WF centre and spread    3  (  0.000001, -0.000000, -3.141871 )     1.48087094
  Sum of centres and spreads ( -3.141870,  3.141871, -3.141871 )     4.44214758
 
     56    -0.218E-07     0.0000847660        4.4421499479       0.13  <-- CONV
        O_D=      0.0000000 O_OD=      0.0043803 O_TOT=      4.4421499 <-- SPRD
 Delta: O_D= -0.1641018E-10 O_OD= -0.2182250E-07 O_TOT= -0.2183891E-07 <-- DLTA
 ------------------------------------------------------------------------------
 Cycle:     57
  WF centre and spread    1  (  0.000000,  3.141872,  0.000000 )     1.48064828
  WF centre and spread    2  ( -3.141871, -0.000000,  0.000000 )     1.48062834
  WF centre and spread    3  (  0.000001, -0.000000, -3.141871 )     1.48087094
  Sum of centres and spreads ( -3.141870,  3.141871, -3.141871 )     4.44214756
 
     57    -0.201E-07     0.0000773147        4.4421499277       0.13  <-- CONV
        O_D=      0.0000000 O_OD=      0.0043803 O_TOT=      4.4421499 <-- SPRD
 Delta: O_D=  0.3961504E-09 O_OD= -0.2054085E-07 O_TOT= -0.2014470E-07 <-- DLTA
 ------------------------------------------------------------------------------
 Cycle:     58
  WF centre and spread    1  (  0.000000,  3.141872,  0.000000 )     1.48064827
  WF centre and spread    2  ( -3.141871, -0.000000,  0.000000 )     1.48062833
  WF centre and spread    3  (  0.000001, -0.000000, -3.141871 )     1.48087094
  Sum of centres and spreads ( -3.141870,  3.141871, -3.141871 )     4.44214754
 
     58    -0.199E-07     0.0000773483        4.4421499079       0.13  <-- CONV
        O_D=      0.0000000 O_OD=      0.0043803 O_TOT=      4.4421499 <-- SPRD
 Delta: O_D=  0.2748670E-08 O_OD= -0.2261041E-07 O_TOT= -0.1986174E-07 <-- DLTA
 ------------------------------------------------------------------------------
 Cycle:     59
  WF centre and spread    1  (  0.000000,  3.141872,  0.000000 )     1.48064826
  WF centre and spread    2  ( -3.141871, -0.000000,  0.000000 )     1.48062832
  WF centre and spread    3  (  0.000001, -0.000000, -3.141871 )     1.48087094
  Sum of centres and spreads ( -3.141870,  3.141871, -3.141871 )     4.44214752
 
     59    -0.198E-07     0.0001168163        4.4421498880       0.13  <-- CONV
        O_D=      0.0000000 O_OD=      0.0043802 O_TOT=      4.4421499 <-- SPRD
 Delta: O_D= -0.3078538E-08 O_OD= -0.1675417E-07 O_TOT= -0.1983271E-07 <-- DLTA
 ------------------------------------------------------------------------------
 Cycle:     60
  WF centre and spread    1  (  0.000000,  3.141872,  0.000000 )     1.48064826
  WF centre and spread    2  ( -3.141871, -0.000000,  0.000000 )     1.48062831
  WF centre and spread    3  (  0.000001, -0.000000, -3.141871 )     1.48087093
  Sum of centres and spreads ( -3.141870,  3.141871, -3.141871 )     4.44214750
 
     60    -0.195E-07     0.0000848177        4.4421498686       0.13  <-- CONV
        O_D=      0.0000000 O_OD=      0.0043802 O_TOT=      4.4421499 <-- SPRD
 Delta: O_D= -0.4967212E-09 O_OD= -0.1897842E-07 O_TOT= -0.1947514E-07 <-- DLTA
 ------------------------------------------------------------------------------
 Cycle:     61
  WF centre and spread    1  (  0.000000,  3.141872,  0.000000 )     1.48064825
  WF centre and spread    2  ( -3.141871, -0.000000,  0.000000 )     1.48062831
  WF centre and spread    3  (  0.000001, -0.000000, -3.141871 )     1.48087092
  Sum of centres and spreads ( -3.141870,  3.141871, -3.141871 )     4.44214748
 
     61    -0.185E-07     0.0000738318        4.4421498501       0.13  <-- CONV
        O_D=      0.0000000 O_OD=      0.0043802 O_TOT=      4.4421499 <-- SPRD
 Delta: O_D=  0.5631633E-09 O_OD= -0.1905626E-07 O_TOT= -0.1849310E-07 <-- DLTA
 ------------------------------------------------------------------------------
 Cycle:     62
  WF centre and spread    1  (  0.000000,  3.141872,  0.000000 )     1.48064823
  WF centre and spread    2  ( -3.141871, -0.000000,  0.000000 )     1.48062831
  WF centre and spread    3  (  0.000001, -0.000000, -3.141871 )     1.48087090
  Sum of centres and spreads ( -3.141870,  3.141871, -3.141871 )     4.44214744
 
     62    -0.413E-07     0.0000893495        4.4421498088       0.14  <-- CONV
        O_D=      0.0000000 O_OD=      0.0043802 O_TOT=      4.4421498 <-- SPRD
 Delta: O_D=  0.4272709E-08 O_OD= -0.4558313E-07 O_TOT= -0.4131042E-07 <-- DLTA
 ------------------------------------------------------------------------------
 Cycle:     63
  WF centre and spread    1  (  0.000000,  3.141872,  0.000000 )     1.48064822
  WF centre and spread    2  ( -3.141871, -0.000000,  0.000000 )     1.48062830
  WF centre and spread    3  (  0.000001, -0.000000, -3.141871 )     1.48087089
  Sum of centres and spreads ( -3.141870,  3.141871, -3.141871 )     4.44214741
 
     63    -0.319E-07     0.0001140211        4.4421497768       0.14  <-- CONV
        O_D=      0.0000000 O_OD=      0.0043801 O_TOT=      4.4421498 <-- SPRD
 Delta: O_D=  0.7752558E-09 O_OD= -0.3269913E-07 O_TOT= -0.3192387E-07 <-- DLTA
 ------------------------------------------------------------------------------
 Cycle:     64
  WF centre and spread    1  (  0.000000,  3.141872,  0.000000 )     1.48064819
  WF centre and spread    2  ( -3.141871, -0.000000,  0.000000 )     1.48062827
  WF centre and spread    3  (  0.000001, -0.000000, -3.141871 )     1.48087089
  Sum of centres and spreads ( -3.141870,  3.141871, -3.141871 )     4.44214735
 
     64    -0.539E-07     0.0000991116        4.4421497229       0.14  <-- CONV
        O_D=      0.0000000 O_OD=      0.0043801 O_TOT=      4.4421497 <-- SPRD
 Delta: O_D=  0.1439025E-07 O_OD= -0.6828831E-07 O_TOT= -0.5389805E-07 <-- DLTA
 ------------------------------------------------------------------------------
 Cycle:     65
  WF centre and spread    1  (  0.000000,  3.141872,  0.000000 )     1.48064818
  WF centre and spread    2  ( -3.141871, -0.000000,  0.000000 )     1.48062825
  WF centre and spread    3  (  0.000001, -0.000000, -3.141871 )     1.48087088
  Sum of centres and spreads ( -3.141870,  3.141871, -3.141871 )     4.44214731
 
     65    -0.472E-07     0.0002034860        4.4421496758       0.14  <-- CONV
        O_D=      0.0000000 O_OD=      0.0043800 O_TOT=      4.4421497 <-- SPRD
 Delta: O_D= -0.1519891E-07 O_OD= -0.3198088E-07 O_TOT= -0.4717979E-07 <-- DLTA
 ------------------------------------------------------------------------------
 Cycle:     66
  WF centre and spread    1  (  0.000000,  3.141872,  0.000000 )     1.48064817
  WF centre and spread    2  ( -3.141871, -0.000000,  0.000000 )     1.48062823
  WF centre and spread    3  (  0.000001, -0.000000, -3.141871 )     1.48087088
  Sum of centres and spreads ( -3.141870,  3.141871, -3.141871 )     4.44214728
 
     66    -0.291E-07     0.0000944317        4.4421496467       0.14  <-- CONV
        O_D=      0.0000000 O_OD=      0.0043800 O_TOT=      4.4421496 <-- SPRD
 Delta: O_D= -0.6625007E-09 O_OD= -0.2840905E-07 O_TOT= -0.2907155E-07 <-- DLTA
 ------------------------------------------------------------------------------
 Cycle:     67
  WF centre and spread    1  (  0.000000,  3.141872,  0.000000 )     1.48064815
  WF centre and spread    2  ( -3.141871, -0.000000,  0.000000 )     1.48062819
  WF centre and spread    3  (  0.000001, -0.000000, -3.141871 )     1.48087090
  Sum of centres and spreads ( -3.141870,  3.141871, -3.141871 )     4.44214724
 
     67    -0.398E-07     0.0001079071        4.4421496069       0.15  <-- CONV
        O_D=      0.0000000 O_OD=      0.0043800 O_TOT=      4.4421496 <-- SPRD
 Delta: O_D= -0.3341848E-08 O_OD= -0.3648128E-07 O_TOT= -0.3982313E-07 <-- DLTA
 ------------------------------------------------------------------------------
 Cycle:     68
  WF centre and spread    1  (  0.000000,  3.141872,  0.000000 )     1.48064814
  WF centre and spread    2  ( -3.141871, -0.000000,  0.000000 )     1.48062818
  WF centre and spread    3  (  0.000001, -0.000000, -3.141871 )     1.48087090
  Sum of centres and spreads ( -3.141870,  3.141871, -3.141871 )     4.44214722
 
     68    -0.183E-07     0.0000908274        4.4421495886       0.15  <-- CONV
        O_D=      0.0000000 O_OD=      0.0043799 O_TOT=      4.4421496 <-- SPRD
 Delta: O_D= -0.9470933E-09 O_OD= -0.1735426E-07 O_TOT= -0.1830136E-07 <-- DLTA
 ------------------------------------------------------------------------------
 Cycle:     69
  WF centre and spread    1  (  0.000000,  3.141872,  0.000000 )     1.48064813
  WF centre and spread    2  ( -3.141871, -0.000000,  0.000000 )     1.48062817
  WF centre and spread    3  (  0.000001, -0.000000, -3.141871 )     1.48087090
  Sum of centres and spreads ( -3.141870,  3.141871, -3.141871 )     4.44214720
 
     69    -0.185E-07     0.0000660056        4.4421495700       0.15  <-- CONV
        O_D=      0.0000000 O_OD=      0.0043799 O_TOT=      4.4421496 <-- SPRD
 Delta: O_D=  0.2479580E-08 O_OD= -0.2099223E-07 O_TOT= -0.1851265E-07 <-- DLTA
 ------------------------------------------------------------------------------
 Cycle:     70
  WF centre and spread    1  (  0.000000,  3.141872,  0.000000 )     1.48064811
  WF centre and spread    2  ( -3.141871, -0.000000,  0.000000 )     1.48062816
  WF centre and spread    3  (  0.000001, -0.000000, -3.141871 )     1.48087090
  Sum of centres and spreads ( -3.141870,  3.141871, -3.141871 )     4.44214718
 
     70    -0.237E-07     0.0000928092        4.4421495464       0.15  <-- CONV
        O_D=      0.0000000 O_OD=      0.0043799 O_TOT=      4.4421495 <-- SPRD
 Delta: O_D=  0.2416676E-08 O_OD= -0.2607033E-07 O_TOT= -0.2365365E-07 <-- DLTA
 ------------------------------------------------------------------------------
 Cycle:     71
  WF centre and spread    1  (  0.000000,  3.141872,  0.000000 )     1.48064811
  WF centre and spread    2  ( -3.141871, -0.000000,  0.000000 )     1.48062815
  WF centre and spread    3  (  0.000001, -0.000000, -3.141871 )     1.48087089
  Sum of centres and spreads ( -3.141870,  3.141871, -3.141871 )     4.44214715
 
     71    -0.284E-07     0.0001165474        4.4421495180       0.15  <-- CONV
        O_D=      0.0000000 O_OD=      0.0043799 O_TOT=      4.4421495 <-- SPRD
 Delta: O_D= -0.2257454E-08 O_OD= -0.2617451E-07 O_TOT= -0.2843197E-07 <-- DLTA
 ------------------------------------------------------------------------------
 Cycle:     72
  WF centre and spread    1  (  0.000000,  3.141872,  0.000000 )     1.48064810
  WF centre and spread    2  ( -3.141871, -0.000000,  0.000000 )     1.48062814
  WF centre and spread    3  (  0.000001, -0.000000, -3.141871 )     1.48087089
  Sum of centres and spreads ( -3.141870,  3.141871, -3.141871 )     4.44214713
 
     72    -0.177E-07     0.0000999515        4.4421495002       0.16  <-- CONV
        O_D=      0.0000000 O_OD=      0.0043798 O_TOT=      4.4421495 <-- SPRD
 Delta: O_D= -0.2733980E-08 O_OD= -0.1497622E-07 O_TOT= -0.1771020E-07 <-- DLTA
 ------------------------------------------------------------------------------
 Cycle:     73
  WF centre and spread    1  (  0.000000,  3.141872,  0.000000 )     1.48064809
  WF centre and spread    2  ( -3.141871, -0.000000,  0.000000 )     1.48062814
  WF centre and spread    3  (  0.000001, -0.000000, -3.141871 )     1.48087088
  Sum of centres and spreads ( -3.141870,  3.141871, -3.141871 )     4.44214711
 
     73    -0.168E-07     0.0000652479        4.4421494834       0.16  <-- CONV
        O_D=      0.0000000 O_OD=      0.0043798 O_TOT=      4.4421495 <-- SPRD
 Delta: O_D=  0.1422441E-08 O_OD= -0.1822800E-07 O_TOT= -0.1680556E-07 <-- DLTA
 ------------------------------------------------------------------------------
 Cycle:     74
  WF centre and spread    1  (  0.000000,  3.141872,  0.000000 )     1.48064808
  WF centre and spread    2  ( -3.141871, -0.000000,  0.000000 )     1.48062814
  WF centre and spread    3  (  0.000001, -0.000000, -3.141871 )     1.48087086
  Sum of centres and spreads ( -3.141870,  3.141871, -3.141871 )     4.44214707
 
     74    -0.400E-07     0.0000938692        4.4421494434       0.16  <-- CONV
        O_D=      0.0000000 O_OD=      0.0043798 O_TOT=      4.4421494 <-- SPRD
 Delta: O_D=  0.3991179E-08 O_OD= -0.4400751E-07 O_TOT= -0.4001633E-07 <-- DLTA
 ------------------------------------------------------------------------------
 Cycle:     75
  WF centre and spread    1  (  0.000000,  3.141872,  0.000000 )     1.48064807
  WF centre and spread    2  ( -3.141871, -0.000000,  0.000000 )     1.48062813
  WF centre and spread    3  (  0.000001, -0.000000, -3.141871 )     1.48087085
  Sum of centres and spreads ( -3.141870,  3.141871, -3.141871 )     4.44214705
 
     75    -0.288E-07     0.0001091125        4.4421494146       0.16  <-- CONV
        O_D=      0.0000000 O_OD=      0.0043798 O_TOT=      4.4421494 <-- SPRD
 Delta: O_D= -0.4607760E-09 O_OD= -0.2837479E-07 O_TOT= -0.2883557E-07 <-- DLTA
 ------------------------------------------------------------------------------
 Cycle:     76
  WF centre and spread    1  (  0.000000,  3.141872,  0.000000 )     1.48064805
  WF centre and spread    2  ( -3.141871, -0.000000,  0.000000 )     1.48062811
  WF centre and spread    3  (  0.000001, -0.000000, -3.141871 )     1.48087085
  Sum of centres and spreads ( -3.141870,  3.141871, -3.141871 )     4.44214700
 
     76    -0.410E-07     0.0000934875        4.4421493735       0.16  <-- CONV
        O_D=      0.0000000 O_OD=      0.0043797 O_TOT=      4.4421494 <-- SPRD
 Delta: O_D=  0.1049701E-07 O_OD= -0.5154143E-07 O_TOT= -0.4104442E-07 <-- DLTA
 ------------------------------------------------------------------------------
 Cycle:     77
  WF centre and spread    1  (  0.000000,  3.141872,  0.000000 )     1.48064803
  WF centre and spread    2  ( -3.141871, -0.000000,  0.000000 )     1.48062810
  WF centre and spread    3  (  0.000001, -0.000000, -3.141871 )     1.48087084
  Sum of centres and spreads ( -3.141870,  3.141871, -3.141871 )     4.44214697
 
     77    -0.390E-07     0.0001742095        4.4421493346       0.16  <-- CONV
        O_D=      0.0000000 O_OD=      0.0043797 O_TOT=      4.4421493 <-- SPRD
 Delta: O_D= -0.1136400E-07 O_OD= -0.2760543E-07 O_TOT= -0.3896943E-07 <-- DLTA
 ------------------------------------------------------------------------------
 Cycle:     78
  WF centre and spread    1  (  0.000000,  3.141872,  0.000000 )     1.48064802
  WF centre and spread    2  ( -3.141871, -0.000000,  0.000000 )     1.48062808
  WF centre and spread    3  (  0.000001, -0.000000, -3.141871 )     1.48087084
  Sum of centres and spreads ( -3.141870,  3.141871, -3.141871 )     4.44214694
 
     78    -0.247E-07     0.0000892045        4.4421493099       0.17  <-- CONV
        O_D=      0.0000000 O_OD=      0.0043797 O_TOT=      4.4421493 <-- SPRD
 Delta: O_D=  0.7642264E-09 O_OD= -0.2545345E-07 O_TOT= -0.2468923E-07 <-- DLTA
 ------------------------------------------------------------------------------
 Cycle:     79
  WF centre and spread    1  (  0.000000,  3.141872,  0.000000 )     1.48064800
  WF centre and spread    2  ( -3.141871, -0.000000,  0.000000 )     1.48062804
  WF centre and spread    3  (  0.000001, -0.000000, -3.141871 )     1.48087086
  Sum of centres and spreads ( -3.141870,  3.141871, -3.141871 )     4.44214690
 
     79    -0.397E-07     0.0001132462        4.4421492701       0.17  <-- CONV
        O_D=      0.0000000 O_OD=      0.0043796 O_TOT=      4.4421493 <-- SPRD
 Delta: O_D= -0.3289631E-08 O_OD= -0.3645495E-07 O_TOT= -0.3974458E-07 <-- DLTA
 ------------------------------------------------------------------------------
 Cycle:     80
  WF centre and spread    1  (  0.000000,  3.141872,  0.000000 )     1.48064800
  WF centre and spread    2  ( -3.141871, -0.000000,  0.000000 )     1.48062803
  WF centre and spread    3  (  0.000001, -0.000000, -3.141871 )     1.48087086
  Sum of centres and spreads ( -3.141870,  3.141871, -3.141871 )     4.44214688
 
     80    -0.165E-07     0.0000917734        4.4421492536       0.17  <-- CONV
        O_D=      0.0000000 O_OD=      0.0043796 O_TOT=      4.4421493 <-- SPRD
 Delta: O_D= -0.1626284E-08 O_OD= -0.1491473E-07 O_TOT= -0.1654101E-07 <-- DLTA
 ------------------------------------------------------------------------------
 Cycle:     81
  WF centre and spread    1  (  0.000000,  3.141872,  0.000000 )     1.48064798
  WF centre and spread    2  ( -3.141871, -0.000000,  0.000000 )     1.48062802
  WF centre and spread    3  (  0.000001, -0.000000, -3.141871 )     1.48087086
  Sum of centres and spreads ( -3.141870,  3.141871, -3.141871 )     4.44214687
 
     81    -0.181E-07     0.0000598850        4.4421492355       0.17  <-- CONV
        O_D=      0.0000000 O_OD=      0.0043796 O_TOT=      4.4421492 <-- SPRD
 Delta: O_D=  0.7053165E-08 O_OD= -0.2511449E-07 O_TOT= -0.1806132E-07 <-- DLTA
 ------------------------------------------------------------------------------
 Cycle:     82
  WF centre and spread    1  (  0.000000,  3.141872,  0.000000 )     1.48064798
  WF centre and spread    2  ( -3.141871, -0.000000,  0.000000 )     1.48062801
  WF centre and spread    3  (  0.000001, -0.000000, -3.141871 )     1.48087086
  Sum of centres and spreads ( -3.141870,  3.141871, -3.141871 )     4.44214685
 
     82    -0.168E-07     0.0001217421        4.4421492187       0.17  <-- CONV
        O_D=      0.0000000 O_OD=      0.0043796 O_TOT=      4.4421492 <-- SPRD
 Delta: O_D= -0.6312264E-08 O_OD= -0.1047767E-07 O_TOT= -0.1678993E-07 <-- DLTA
 ------------------------------------------------------------------------------
 Cycle:     83
  WF centre and spread    1  (  0.000000,  3.141872,  0.000000 )     1.48064798
  WF centre and spread    2  ( -3.141871, -0.000000,  0.000000 )     1.48062801
  WF centre and spread    3  (  0.000001, -0.000000, -3.141871 )     1.48087085
  Sum of centres and spreads ( -3.141870,  3.141871, -3.141871 )     4.44214684
 
     83    -0.133E-07     0.0000660060        4.4421492054       0.18  <-- CONV
        O_D=      0.0000000 O_OD=      0.0043795 O_TOT=      4.4421492 <-- SPRD
 Delta: O_D=  0.4774896E-08 O_OD= -0.1811549E-07 O_TOT= -0.1334059E-07 <-- DLTA
 ------------------------------------------------------------------------------
 Cycle:     84
  WF centre and spread    1  (  0.000000,  3.141872,  0.000000 )     1.48064797
  WF centre and spread    2  ( -3.141871, -0.000000,  0.000000 )     1.48062800
  WF centre and spread    3  (  0.000001, -0.000000, -3.141871 )     1.48087085
  Sum of centres and spreads ( -3.141870,  3.141871, -3.141871 )     4.44214682
 
     84    -0.170E-07     0.0001150354        4.4421491884       0.18  <-- CONV
        O_D=      0.0000000 O_OD=      0.0043795 O_TOT=      4.4421492 <-- SPRD
 Delta: O_D= -0.5338273E-08 O_OD= -0.1165743E-07 O_TOT= -0.1699570E-07 <-- DLTA
 ------------------------------------------------------------------------------
 Cycle:     85
  WF centre and spread    1  (  0.000000,  3.141872,  0.000000 )     1.48064797
  WF centre and spread    2  ( -3.141871, -0.000000,  0.000000 )     1.48062800
  WF centre and spread    3  (  0.000001, -0.000000, -3.141871 )     1.48087084
  Sum of centres and spreads ( -3.141870,  3.141871, -3.141871 )     4.44214681
 
     85    -0.933E-08     0.0000648751        4.4421491791       0.18  <-- CONV
        O_D=      0.0000000 O_OD=      0.0043795 O_TOT=      4.4421492 <-- SPRD
 Delta: O_D= -0.5616806E-09 O_OD= -0.8765324E-08 O_TOT= -0.9327004E-08 <-- DLTA
 ------------------------------------------------------------------------------
 Cycle:     86
  WF centre and spread    1  (  0.000000,  3.141872,  0.000000 )     1.48064796
  WF centre and spread    2  ( -3.141871, -0.000000,  0.000000 )     1.48062800
  WF centre and spread    3  (  0.000001, -0.000000, -3.141871 )     1.48087084
  Sum of centres and spreads ( -3.141870,  3.141871, -3.141871 )     4.44214679
 
     86    -0.180E-07     0.0000562793        4.4421491611       0.18  <-- CONV
        O_D=      0.0000000 O_OD=      0.0043795 O_TOT=      4.4421492 <-- SPRD
 Delta: O_D=  0.2579325E-08 O_OD= -0.2057142E-07 O_TOT= -0.1799209E-07 <-- DLTA
 ------------------------------------------------------------------------------
 Cycle:     87
  WF centre and spread    1  (  0.000000,  3.141872,  0.000000 )     1.48064795
  WF centre and spread    2  ( -3.141871, -0.000000,  0.000000 )     1.48062799
  WF centre and spread    3  (  0.000001, -0.000000, -3.141871 )     1.48087083
  Sum of centres and spreads ( -3.141870,  3.141871, -3.141871 )     4.44214678
 
     87    -0.158E-07     0.0001033005        4.4421491453       0.18  <-- CONV
        O_D=      0.0000000 O_OD=      0.0043795 O_TOT=      4.4421491 <-- SPRD
 Delta: O_D= -0.2728339E-08 O_OD= -0.1309092E-07 O_TOT= -0.1581926E-07 <-- DLTA
 ------------------------------------------------------------------------------
 Cycle:     88
  WF centre and spread    1  (  0.000000,  3.141872,  0.000000 )     1.48064795
  WF centre and spread    2  ( -3.141871, -0.000000,  0.000000 )     1.48062798
  WF centre and spread    3  (  0.000001, -0.000000, -3.141871 )     1.48087083
  Sum of centres and spreads ( -3.141870,  3.141871, -3.141871 )     4.44214676
 
     88    -0.117E-07     0.0000609651        4.4421491336       0.19  <-- CONV
        O_D=      0.0000000 O_OD=      0.0043795 O_TOT=      4.4421491 <-- SPRD
 Delta: O_D=  0.1278512E-09 O_OD= -0.1182389E-07 O_TOT= -0.1169604E-07 <-- DLTA
 ------------------------------------------------------------------------------
 Cycle:     89
  WF centre and spread    1  (  0.000000,  3.141872,  0.000000 )     1.48064794
  WF centre and spread    2  ( -3.141871, -0.000000,  0.000000 )     1.48062797
  WF centre and spread    3  (  0.000001, -0.000000, -3.141871 )     1.48087084
  Sum of centres and spreads ( -3.141870,  3.141871, -3.141871 )     4.44214675
 
     89    -0.109E-07     0.0000580372        4.4421491227       0.19  <-- CONV
        O_D=      0.0000000 O_OD=      0.0043795 O_TOT=      4.4421491 <-- SPRD
 Delta: O_D=  0.1430961E-08 O_OD= -0.1235431E-07 O_TOT= -0.1092335E-07 <-- DLTA
 ------------------------------------------------------------------------------
 Cycle:     90
  WF centre and spread    1  (  0.000000,  3.141872,  0.000000 )     1.48064794
  WF centre and spread    2  ( -3.141871, -0.000000,  0.000000 )     1.48062797
  WF centre and spread    3  (  0.000001, -0.000000, -3.141871 )     1.48087084
  Sum of centres and spreads ( -3.141870,  3.141871, -3.141871 )     4.44214675
 
     90    -0.240E-10     0.0000811602        4.4421491226       0.19  <-- CONV
        O_D=      0.0000000 O_OD=      0.0043795 O_TOT=      4.4421491 <-- SPRD
 Delta: O_D= -0.4349772E-12 O_OD= -0.2353752E-10 O_TOT= -0.2397282E-10 <-- DLTA
 ------------------------------------------------------------------------------
 Cycle:     91
  WF centre and spread    1  (  0.000000,  3.141872,  0.000000 )     1.48064792
  WF centre and spread    2  ( -3.141871, -0.000000,  0.000000 )     1.48062796
  WF centre and spread    3  (  0.000001, -0.000000, -3.141871 )     1.48087083
  Sum of centres and spreads ( -3.141870,  3.141871, -3.141871 )     4.44214672
 
     91    -0.359E-07     0.0000811583        4.4421490868       0.19  <-- CONV
        O_D=      0.0000000 O_OD=      0.0043794 O_TOT=      4.4421491 <-- SPRD
 Delta: O_D=  0.9111290E-08 O_OD= -0.4497375E-07 O_TOT= -0.3586246E-07 <-- DLTA
 ------------------------------------------------------------------------------
 Cycle:     92
  WF centre and spread    1  (  0.000000,  3.141872,  0.000000 )     1.48064789
  WF centre and spread    2  ( -3.141871, -0.000000,  0.000000 )     1.48062794
  WF centre and spread    3  (  0.000001, -0.000000, -3.141871 )     1.48087084
  Sum of centres and spreads ( -3.141870,  3.141871, -3.141871 )     4.44214667
 
     92    -0.514E-07     0.0001383278        4.4421490354       0.19  <-- CONV
        O_D=      0.0000000 O_OD=      0.0043793 O_TOT=      4.4421490 <-- SPRD
 Delta: O_D=  0.3234919E-07 O_OD= -0.8373879E-07 O_TOT= -0.5138960E-07 <-- DLTA
 ------------------------------------------------------------------------------
 Cycle:     93
  WF centre and spread    1  (  0.000000,  3.141872,  0.000000 )     1.48064787
  WF centre and spread    2  ( -3.141871, -0.000000,  0.000000 )     1.48062790
  WF centre and spread    3  (  0.000001, -0.000000, -3.141871 )     1.48087081
  Sum of centres and spreads ( -3.141870,  3.141871, -3.141871 )     4.44214659
 
     93    -0.811E-07     0.0002883946        4.4421489543       0.19  <-- CONV
        O_D=      0.0000000 O_OD=      0.0043793 O_TOT=      4.4421490 <-- SPRD
 Delta: O_D= -0.4021206E-07 O_OD= -0.4084166E-07 O_TOT= -0.8105371E-07 <-- DLTA
 ------------------------------------------------------------------------------
 Cycle:     94
  WF centre and spread    1  (  0.000000,  3.141872,  0.000000 )     1.48064786
  WF centre and spread    2  ( -3.141871, -0.000000,  0.000000 )     1.48062790
  WF centre and spread    3  (  0.000001, -0.000000, -3.141871 )     1.48087081
  Sum of centres and spreads ( -3.141870,  3.141871, -3.141871 )     4.44214657
 
     94    -0.133E-07     0.0000893271        4.4421489410       0.20  <-- CONV
        O_D=      0.0000000 O_OD=      0.0043793 O_TOT=      4.4421489 <-- SPRD
 Delta: O_D= -0.2807896E-08 O_OD= -0.1048973E-07 O_TOT= -0.1329763E-07 <-- DLTA
 ------------------------------------------------------------------------------
 Cycle:     95
  WF centre and spread    1  (  0.000000,  3.141872,  0.000000 )     1.48064786
  WF centre and spread    2  ( -3.141871, -0.000000,  0.000000 )     1.48062789
  WF centre and spread    3  (  0.000001, -0.000000, -3.141871 )     1.48087081
  Sum of centres and spreads ( -3.141870,  3.141871, -3.141871 )     4.44214656
 
     95    -0.905E-08     0.0000596471        4.4421489320       0.20  <-- CONV
        O_D=      0.0000000 O_OD=      0.0043793 O_TOT=      4.4421489 <-- SPRD
 Delta: O_D=  0.1535458E-08 O_OD= -0.1058668E-07 O_TOT= -0.9051219E-08 <-- DLTA
 ------------------------------------------------------------------------------
 Cycle:     96
  WF centre and spread    1  (  0.000000,  3.141872,  0.000000 )     1.48064785
  WF centre and spread    2  ( -3.141871, -0.000000,  0.000000 )     1.48062787
  WF centre and spread    3  (  0.000001, -0.000000, -3.141871 )     1.48087082
  Sum of centres and spreads ( -3.141870,  3.141871, -3.141871 )     4.44214654
 
     96    -0.197E-07     0.0000836755        4.4421489123       0.20  <-- CONV
        O_D=      0.0000000 O_OD=      0.0043793 O_TOT=      4.4421489 <-- SPRD
 Delta: O_D=  0.3772615E-08 O_OD= -0.2347382E-07 O_TOT= -0.1970121E-07 <-- DLTA
 ------------------------------------------------------------------------------
 Cycle:     97
  WF centre and spread    1  (  0.000000,  3.141872,  0.000000 )     1.48064779
  WF centre and spread    2  ( -3.141871, -0.000000,  0.000000 )     1.48062780
  WF centre and spread    3  (  0.000001, -0.000000, -3.141871 )     1.48087082
  Sum of centres and spreads ( -3.141870,  3.141871, -3.141871 )     4.44214640
 
[...]
  Sum of centres and spreads ( -3.141870,  3.141871, -3.141871 )     4.44213346
 
    473    -0.130E-07     0.0000908744        4.4421358308       0.91  <-- CONV
        O_D=      0.0000000 O_OD=      0.0043662 O_TOT=      4.4421358 <-- SPRD
 Delta: O_D= -0.7073012E-08 O_OD= -0.5891094E-08 O_TOT= -0.1296411E-07 <-- DLTA
 ------------------------------------------------------------------------------
 Cycle:    474
  WF centre and spread    1  (  0.000000,  3.141872,  0.000000 )     1.48064230
  WF centre and spread    2  ( -3.141871, -0.000000,  0.000000 )     1.48062189
  WF centre and spread    3  (  0.000001, -0.000000, -3.141871 )     1.48086925
  Sum of centres and spreads ( -3.141870,  3.141871, -3.141871 )     4.44213344
 
    474    -0.208E-07     0.0000734361        4.4421358100       0.91  <-- CONV
        O_D=      0.0000000 O_OD=      0.0043662 O_TOT=      4.4421358 <-- SPRD
 Delta: O_D=  0.9462526E-09 O_OD= -0.2173418E-07 O_TOT= -0.2078793E-07 <-- DLTA
 ------------------------------------------------------------------------------
 Cycle:    475
  WF centre and spread    1  (  0.000000,  3.141872,  0.000000 )     1.48064229
  WF centre and spread    2  ( -3.141871, -0.000000,  0.000000 )     1.48062188
  WF centre and spread    3  (  0.000001, -0.000000, -3.141871 )     1.48086925
  Sum of centres and spreads ( -3.141870,  3.141871, -3.141871 )     4.44213342
 
    475    -0.228E-07     0.0000587360        4.4421357872       0.92  <-- CONV
        O_D=      0.0000000 O_OD=      0.0043661 O_TOT=      4.4421358 <-- SPRD
 Delta: O_D=  0.4762296E-08 O_OD= -0.2757346E-07 O_TOT= -0.2281116E-07 <-- DLTA
 ------------------------------------------------------------------------------
 Cycle:    476
  WF centre and spread    1  (  0.000000,  3.141872,  0.000000 )     1.48064226
  WF centre and spread    2  ( -3.141871, -0.000000,  0.000000 )     1.48062183
  WF centre and spread    3  (  0.000001, -0.000000, -3.141871 )     1.48086924
  Sum of centres and spreads ( -3.141870,  3.141871, -3.141871 )     4.44213334
 
    476    -0.788E-07     0.0000902452        4.4421357083       0.92  <-- CONV
        O_D=      0.0000000 O_OD=      0.0043660 O_TOT=      4.4421357 <-- SPRD
 Delta: O_D=  0.1810311E-07 O_OD= -0.9694813E-07 O_TOT= -0.7884502E-07 <-- DLTA
 ------------------------------------------------------------------------------
 Cycle:    477
  WF centre and spread    1  (  0.000000,  3.141872,  0.000000 )     1.48064225
  WF centre and spread    2  ( -3.141871, -0.000000,  0.000000 )     1.48062182
  WF centre and spread    3  (  0.000001, -0.000000, -3.141871 )     1.48086923
  Sum of centres and spreads ( -3.141870,  3.141871, -3.141871 )     4.44213331
 
    477    -0.341E-07     0.0001998900        4.4421356742       0.92  <-- CONV
        O_D=      0.0000000 O_OD=      0.0043660 O_TOT=      4.4421357 <-- SPRD
 Delta: O_D= -0.2767770E-07 O_OD= -0.6450586E-08 O_TOT= -0.3412829E-07 <-- DLTA
 ------------------------------------------------------------------------------
 Cycle:    478
  WF centre and spread    1  (  0.000000,  3.141872,  0.000000 )     1.48064225
  WF centre and spread    2  ( -3.141871, -0.000000,  0.000000 )     1.48062181
  WF centre and spread    3  (  0.000001, -0.000000, -3.141871 )     1.48086923
  Sum of centres and spreads ( -3.141870,  3.141871, -3.141871 )     4.44213330
 
    478    -0.714E-08     0.0000450816        4.4421356671       0.92  <-- CONV
        O_D=      0.0000000 O_OD=      0.0043660 O_TOT=      4.4421357 <-- SPRD
 Delta: O_D=  0.1651363E-09 O_OD= -0.7302098E-08 O_TOT= -0.7136961E-08 <-- DLTA
 ------------------------------------------------------------------------------
 Cycle:    479
  WF centre and spread    1  (  0.000000,  3.141872,  0.000000 )     1.48064225
  WF centre and spread    2  ( -3.141871, -0.000000,  0.000000 )     1.48062181
  WF centre and spread    3  (  0.000001, -0.000000, -3.141871 )     1.48086923
  Sum of centres and spreads ( -3.141870,  3.141871, -3.141871 )     4.44213330
 
    479    -0.114E-10     0.0000495870        4.4421356671       0.92  <-- CONV
        O_D=      0.0000000 O_OD=      0.0043660 O_TOT=      4.4421357 <-- SPRD
 Delta: O_D= -0.1006272E-11 O_OD= -0.1041932E-10 O_TOT= -0.1142553E-10 <-- DLTA
 ------------------------------------------------------------------------------
 Cycle:    480
  WF centre and spread    1  (  0.000000,  3.141872,  0.000000 )     1.48064225
  WF centre and spread    2  ( -3.141871, -0.000000,  0.000000 )     1.48062180
  WF centre and spread    3  (  0.000001, -0.000000, -3.141871 )     1.48086923
  Sum of centres and spreads ( -3.141870,  3.141871, -3.141871 )     4.44213328
 
    480    -0.147E-07     0.0000495739        4.4421356524       0.92  <-- CONV
        O_D=      0.0000000 O_OD=      0.0043660 O_TOT=      4.4421357 <-- SPRD
 Delta: O_D=  0.5513083E-08 O_OD= -0.2019407E-07 O_TOT= -0.1468098E-07 <-- DLTA
 ------------------------------------------------------------------------------
 Cycle:    481
  WF centre and spread    1  (  0.000000,  3.141872,  0.000000 )     1.48064224
  WF centre and spread    2  ( -3.141871, -0.000000,  0.000000 )     1.48062180
  WF centre and spread    3  (  0.000001, -0.000000, -3.141871 )     1.48086923
  Sum of centres and spreads ( -3.141870,  3.141871, -3.141871 )     4.44213327
 
    481    -0.953E-08     0.0001015547        4.4421356429       0.93  <-- CONV
        O_D=      0.0000000 O_OD=      0.0043660 O_TOT=      4.4421356 <-- SPRD
 Delta: O_D= -0.5796015E-08 O_OD= -0.3730324E-08 O_TOT= -0.9526340E-08 <-- DLTA
 ------------------------------------------------------------------------------
 Cycle:    482
  WF centre and spread    1  (  0.000000,  3.141872,  0.000000 )     1.48064224
  WF centre and spread    2  ( -3.141871, -0.000000,  0.000000 )     1.48062180
  WF centre and spread    3  (  0.000001, -0.000000, -3.141871 )     1.48086923
  Sum of centres and spreads ( -3.141870,  3.141871, -3.141871 )     4.44213327
 
    482    -0.571E-11     0.0000407075        4.4421356429       0.93  <-- CONV
        O_D=      0.0000000 O_OD=      0.0043660 O_TOT=      4.4421356 <-- SPRD
 Delta: O_D= -0.2908819E-12 O_OD= -0.5422458E-11 O_TOT= -0.5712764E-11 <-- DLTA
 ------------------------------------------------------------------------------
 Cycle:    483
  WF centre and spread    1  (  0.000000,  3.141872,  0.000000 )     1.48064223
  WF centre and spread    2  ( -3.141871, -0.000000,  0.000000 )     1.48062180
  WF centre and spread    3  (  0.000001, -0.000000, -3.141871 )     1.48086923
  Sum of centres and spreads ( -3.141870,  3.141871, -3.141871 )     4.44213326
 
    483    -0.137E-07     0.0000407024        4.4421356291       0.93  <-- CONV
        O_D=      0.0000000 O_OD=      0.0043660 O_TOT=      4.4421356 <-- SPRD
 Delta: O_D=  0.1405862E-07 O_OD= -0.2780607E-07 O_TOT= -0.1374745E-07 <-- DLTA
 ------------------------------------------------------------------------------
 Cycle:    484
  WF centre and spread    1  (  0.000000,  3.141872,  0.000000 )     1.48064223
  WF centre and spread    2  ( -3.141871, -0.000000,  0.000000 )     1.48062179
  WF centre and spread    3  (  0.000001, -0.000000, -3.141871 )     1.48086923
  Sum of centres and spreads ( -3.141870,  3.141871, -3.141871 )     4.44213324
 
    484    -0.183E-07     0.0001494226        4.4421356108       0.93  <-- CONV
        O_D=      0.0000000 O_OD=      0.0043660 O_TOT=      4.4421356 <-- SPRD
 Delta: O_D= -0.1413354E-07 O_OD= -0.4214588E-08 O_TOT= -0.1834813E-07 <-- DLTA
 ------------------------------------------------------------------------------
 Cycle:    485
  WF centre and spread    1  (  0.000000,  3.141872,  0.000000 )     1.48064223
  WF centre and spread    2  ( -3.141871, -0.000000,  0.000000 )     1.48062179
  WF centre and spread    3  (  0.000001, -0.000000, -3.141871 )     1.48086923
  Sum of centres and spreads ( -3.141870,  3.141871, -3.141871 )     4.44213324
 
    485    -0.554E-11     0.0000400581        4.4421356108       0.93  <-- CONV
        O_D=      0.0000000 O_OD=      0.0043660 O_TOT=      4.4421356 <-- SPRD
 Delta: O_D= -0.2676971E-12 O_OD= -0.5269212E-11 O_TOT= -0.5537792E-11 <-- DLTA
 ------------------------------------------------------------------------------
 Cycle:    486
  WF centre and spread    1  (  0.000000,  3.141872,  0.000000 )     1.48064222
  WF centre and spread    2  ( -3.141871, -0.000000,  0.000000 )     1.48062178
  WF centre and spread    3  (  0.000001, -0.000000, -3.141871 )     1.48086923
  Sum of centres and spreads ( -3.141870,  3.141871, -3.141871 )     4.44213323
 
    486    -0.123E-07     0.0000400506        4.4421355985       0.93  <-- CONV
        O_D=      0.0000000 O_OD=      0.0043659 O_TOT=      4.4421356 <-- SPRD
 Delta: O_D=  0.4865445E-08 O_OD= -0.1716047E-07 O_TOT= -0.1229502E-07 <-- DLTA
 ------------------------------------------------------------------------------
 Cycle:    487
  WF centre and spread    1  (  0.000000,  3.141872,  0.000000 )     1.48064222
  WF centre and spread    2  ( -3.141871, -0.000000,  0.000000 )     1.48062178
  WF centre and spread    3  (  0.000001, -0.000000, -3.141871 )     1.48086922
  Sum of centres and spreads ( -3.141870,  3.141871, -3.141871 )     4.44213322
 
    487    -0.111E-07     0.0001082945        4.4421355873       0.94  <-- CONV
        O_D=      0.0000000 O_OD=      0.0043659 O_TOT=      4.4421356 <-- SPRD
 Delta: O_D= -0.4716980E-08 O_OD= -0.6389794E-08 O_TOT= -0.1110677E-07 <-- DLTA
 ------------------------------------------------------------------------------
 Cycle:    488
  WF centre and spread    1  (  0.000000,  3.141872,  0.000000 )     1.48064221
  WF centre and spread    2  ( -3.141871, -0.000000,  0.000000 )     1.48062177
  WF centre and spread    3  (  0.000001, -0.000000, -3.141871 )     1.48086922
  Sum of centres and spreads ( -3.141870,  3.141871, -3.141871 )     4.44213321
 
    488    -0.106E-07     0.0000423734        4.4421355768       0.94  <-- CONV
        O_D=      0.0000000 O_OD=      0.0043659 O_TOT=      4.4421356 <-- SPRD
 Delta: O_D=  0.1487651E-08 O_OD= -0.1205818E-07 O_TOT= -0.1057053E-07 <-- DLTA
 ------------------------------------------------------------------------------
 Cycle:    489
  WF centre and spread    1  (  0.000000,  3.141872,  0.000000 )     1.48064221
  WF centre and spread    2  ( -3.141871, -0.000000,  0.000000 )     1.48062177
  WF centre and spread    3  (  0.000001, -0.000000, -3.141871 )     1.48086922
  Sum of centres and spreads ( -3.141870,  3.141871, -3.141871 )     4.44213320
 
    489    -0.842E-08     0.0000864067        4.4421355684       0.94  <-- CONV
        O_D=      0.0000000 O_OD=      0.0043659 O_TOT=      4.4421356 <-- SPRD
 Delta: O_D= -0.1408401E-08 O_OD= -0.7013797E-08 O_TOT= -0.8422199E-08 <-- DLTA
 ------------------------------------------------------------------------------
 Cycle:    490
  WF centre and spread    1  (  0.000000,  3.141872,  0.000000 )     1.48064220
  WF centre and spread    2  ( -3.141871, -0.000000,  0.000000 )     1.48062176
  WF centre and spread    3  (  0.000001, -0.000000, -3.141871 )     1.48086922
  Sum of centres and spreads ( -3.141870,  3.141871, -3.141871 )     4.44213319
 
    490    -0.117E-07     0.0000446999        4.4421355567       0.94  <-- CONV
        O_D=      0.0000000 O_OD=      0.0043659 O_TOT=      4.4421356 <-- SPRD
 Delta: O_D=  0.1761777E-08 O_OD= -0.1345912E-07 O_TOT= -0.1169734E-07 <-- DLTA
 ------------------------------------------------------------------------------
 Cycle:    491
  WF centre and spread    1  (  0.000000,  3.141872,  0.000000 )     1.48064220
  WF centre and spread    2  ( -3.141871, -0.000000,  0.000000 )     1.48062176
  WF centre and spread    3  (  0.000001, -0.000000, -3.141871 )     1.48086922
  Sum of centres and spreads ( -3.141870,  3.141871, -3.141871 )     4.44213318
 
    491    -0.673E-08     0.0000775802        4.4421355499       0.94  <-- CONV
        O_D=      0.0000000 O_OD=      0.0043659 O_TOT=      4.4421355 <-- SPRD
 Delta: O_D= -0.1692965E-08 O_OD= -0.5041471E-08 O_TOT= -0.6734436E-08 <-- DLTA
 ------------------------------------------------------------------------------
 Cycle:    492
  WF centre and spread    1  (  0.000000,  3.141872,  0.000000 )     1.48064220
  WF centre and spread    2  ( -3.141871, -0.000000,  0.000000 )     1.48062176
  WF centre and spread    3  (  0.000001, -0.000000, -3.141871 )     1.48086922
  Sum of centres and spreads ( -3.141870,  3.141871, -3.141871 )     4.44213318
 
    492    -0.696E-11     0.0000448992        4.4421355499       0.94  <-- CONV
        O_D=      0.0000000 O_OD=      0.0043659 O_TOT=      4.4421355 <-- SPRD
 Delta: O_D= -0.7359423E-12 O_OD= -0.6223756E-11 O_TOT= -0.6960654E-11 <-- DLTA
 ------------------------------------------------------------------------------
 Cycle:    493
  WF centre and spread    1  (  0.000000,  3.141872,  0.000000 )     1.48064220
  WF centre and spread    2  ( -3.141871, -0.000000,  0.000000 )     1.48062176
  WF centre and spread    3  (  0.000001, -0.000000, -3.141871 )     1.48086922
  Sum of centres and spreads ( -3.141870,  3.141871, -3.141871 )     4.44213317
 
    493    -0.909E-08     0.0000448883        4.4421355408       0.95  <-- CONV
        O_D=      0.0000000 O_OD=      0.0043659 O_TOT=      4.4421355 <-- SPRD
 Delta: O_D=  0.2462492E-08 O_OD= -0.1154759E-07 O_TOT= -0.9085101E-08 <-- DLTA
 ------------------------------------------------------------------------------
 Cycle:    494
  WF centre and spread    1  (  0.000000,  3.141872,  0.000000 )     1.48064217
  WF centre and spread    2  ( -3.141871, -0.000000,  0.000000 )     1.48062174
  WF centre and spread    3  (  0.000001, -0.000000, -3.141871 )     1.48086923
  Sum of centres and spreads ( -3.141870,  3.141871, -3.141871 )     4.44213314
 
    494    -0.273E-07     0.0000753189        4.4421355136       0.95  <-- CONV
        O_D=      0.0000000 O_OD=      0.0043658 O_TOT=      4.4421355 <-- SPRD
 Delta: O_D=  0.3427056E-07 O_OD= -0.6154410E-07 O_TOT= -0.2727355E-07 <-- DLTA
 ------------------------------------------------------------------------------
 Cycle:    495
  WF centre and spread    1  (  0.000000,  3.141872,  0.000000 )     1.48064217
  WF centre and spread    2  ( -3.141871, -0.000000,  0.000000 )     1.48062172
  WF centre and spread    3  (  0.000001, -0.000000, -3.141871 )     1.48086921
  Sum of centres and spreads ( -3.141870,  3.141871, -3.141871 )     4.44213310
 
    495    -0.481E-07     0.0002410234        4.4421354654       0.95  <-- CONV
        O_D=      0.0000000 O_OD=      0.0043658 O_TOT=      4.4421355 <-- SPRD
 Delta: O_D= -0.3659399E-07 O_OD= -0.1155264E-07 O_TOT= -0.4814662E-07 <-- DLTA
 ------------------------------------------------------------------------------
 Cycle:    496
  WF centre and spread    1  (  0.000000,  3.141872,  0.000000 )     1.48064216
  WF centre and spread    2  ( -3.141871, -0.000000,  0.000000 )     1.48062172
  WF centre and spread    3  (  0.000001, -0.000000, -3.141871 )     1.48086921
  Sum of centres and spreads ( -3.141870,  3.141871, -3.141871 )     4.44213309
 
    496    -0.791E-08     0.0000594700        4.4421354575       0.95  <-- CONV
        O_D=      0.0000000 O_OD=      0.0043658 O_TOT=      4.4421355 <-- SPRD
 Delta: O_D= -0.5311668E-09 O_OD= -0.7374137E-08 O_TOT= -0.7905304E-08 <-- DLTA
 ------------------------------------------------------------------------------
 Cycle:    497
  WF centre and spread    1  (  0.000000,  3.141872,  0.000000 )     1.48064216
  WF centre and spread    2  ( -3.141871, -0.000000,  0.000000 )     1.48062172
  WF centre and spread    3  (  0.000001, -0.000000, -3.141871 )     1.48086921
  Sum of centres and spreads ( -3.141870,  3.141871, -3.141871 )     4.44213309
 
    497    -0.716E-11     0.0000436414        4.4421354575       0.95  <-- CONV
        O_D=      0.0000000 O_OD=      0.0043658 O_TOT=      4.4421355 <-- SPRD
 Delta: O_D=  0.1295082E-13 O_OD= -0.7177801E-11 O_TOT= -0.7164935E-11 <-- DLTA
 ------------------------------------------------------------------------------
 Cycle:    498
  WF centre and spread    1  (  0.000000,  3.141872,  0.000000 )     1.48064215
  WF centre and spread    2  ( -3.141871, -0.000000,  0.000000 )     1.48062170
  WF centre and spread    3  (  0.000001, -0.000000, -3.141871 )     1.48086921
  Sum of centres and spreads ( -3.141870,  3.141871, -3.141871 )     4.44213306
 
    498    -0.311E-07     0.0000436417        4.4421354264       0.95  <-- CONV
        O_D=      0.0000000 O_OD=      0.0043658 O_TOT=      4.4421354 <-- SPRD
 Delta: O_D=  0.9513706E-09 O_OD= -0.3206340E-07 O_TOT= -0.3111203E-07 <-- DLTA
 ------------------------------------------------------------------------------
 Cycle:    499
  WF centre and spread    1  (  0.000000,  3.141872,  0.000000 )     1.48064215
  WF centre and spread    2  ( -3.141871, -0.000000,  0.000000 )     1.48062170
  WF centre and spread    3  (  0.000001, -0.000000, -3.141871 )     1.48086920
  Sum of centres and spreads ( -3.141870,  3.141871, -3.141871 )     4.44213305
 
    499    -0.105E-07     0.0000871283        4.4421354159       0.96  <-- CONV
        O_D=      0.0000000 O_OD=      0.0043658 O_TOT=      4.4421354 <-- SPRD
 Delta: O_D= -0.7946801E-09 O_OD= -0.9719769E-08 O_TOT= -0.1051445E-07 <-- DLTA
 ------------------------------------------------------------------------------
 Cycle:    500
  WF centre and spread    1  (  0.000000,  3.141872,  0.000000 )     1.48064214
  WF centre and spread    2  ( -3.141871, -0.000000,  0.000000 )     1.48062169
  WF centre and spread    3  (  0.000001, -0.000000, -3.141871 )     1.48086920
  Sum of centres and spreads ( -3.141870,  3.141871, -3.141871 )     4.44213304
 
    500    -0.936E-08     0.0000448053        4.4421354065       0.96  <-- CONV
        O_D=      0.0000000 O_OD=      0.0043658 O_TOT=      4.4421354 <-- SPRD
 Delta: O_D=  0.1838395E-08 O_OD= -0.1119479E-07 O_TOT= -0.9356397E-08 <-- DLTA
 ------------------------------------------------------------------------------

 Writing checkpoint file mp-23193.chk... done

 Final State
  WF centre and spread    1  (  0.000000,  3.141872,  0.000000 )     1.48064214
  WF centre and spread    2  ( -3.141871, -0.000000,  0.000000 )     1.48062169
  WF centre and spread    3  (  0.000001, -0.000000, -3.141871 )     1.48086920
  Sum of centres and spreads ( -3.141870,  3.141871, -3.141871 )     4.44213304
 
         Spreads (Ang^2)       Omega I      =     4.437769649
        ================       Omega D      =     0.000000002
                               Omega OD     =     0.004365756
    Final Spread (Ang^2)       Omega Total  =     4.442135407
 ------------------------------------------------------------------------------
 Time for wannierise            0.952 (sec)

 Writing checkpoint file mp-23193.chk... done

 Time for plotting              0.000 (sec)
 Total Execution Time           1.892 (sec)

 *===========================================================================*
 |                             TIMING INFORMATION                            |
 *===========================================================================*
 |    Tag                                                Ncalls      Time (s)|
 |---------------------------------------------------------------------------|
 |kmesh: get                                        :         1         0.719|
 |overlap: allocate                                 :         1         0.001|
 |overlap: read                                     :         1         0.084|
 |wann: main                                        :         1         0.952|
 |plot: main                                        :         1         0.000|
 *---------------------------------------------------------------------------*
 
 All done: wannier90 exiting
