 
             +---------------------------------------------------+
             |                                                   |
             |                   WANNIER90                       |
             |                                                   |
             +---------------------------------------------------+
             |                                                   |
             |        Welcome to the Maximally-Localized         |
             |        Generalized Wannier Functions code         |
             |            http://www.wannier.org                 |
             |                                                   |
             |                                                   |
             |  Wannier90 Developer Group:                       |
             |    Giovanni Pizzi    (EPFL)                       |
             |    Valerio Vitale    (Cambridge)                  |
             |    David Vanderbilt  (Rutgers University)         |
             |    Nicola Marzari    (EPFL)                       |
             |    Ivo Souza         (Universidad del Pais Vasco) |
             |    Arash A. Mostofi  (Imperial College London)    |
             |    Jonathan R. Yates (University of Oxford)       |
             |                                                   |
             |  For the full list of Wannier90 3.x authors,      |
             |  please check the code documentation and the      |
             |  README on the GitHub page of the code            |
             |                                                   |
             |                                                   |
             |  Please cite                                      |
             |                                                   |
             |  [ref] "Wannier90 as a community code:            |
             |        new features and applications",            |
             |        G. Pizzi et al., J. Phys. Cond. Matt. 32,  |
             |        165902 (2020).                             |
             |        http://doi.org/10.1088/1361-648X/ab51ff    |
             |                                                   |
             |  in any publications arising from the use of      |
             |  this code. For the method please cite            |
             |                                                   |
             |  [ref] "Maximally Localized Generalised Wannier   |
             |         Functions for Composite Energy Bands"     |
             |         N. Marzari and D. Vanderbilt              |
             |         Phys. Rev. B 56 12847 (1997)              |
             |                                                   |
             |  [ref] "Maximally Localized Wannier Functions     |
             |         for Entangled Energy Bands"               |
             |         I. Souza, N. Marzari and D. Vanderbilt    |
             |         Phys. Rev. B 65 035109 (2001)             |
             |                                                   |
             |                                                   |
             | Copyright (c) 1996-2020                           |
             |        The Wannier90 Developer Group and          |
             |        individual contributors                    |
             |                                                   |
             |      Release: 3.1.0        5th March    2020      |
             |                                                   |
             | This program is free software; you can            |
             | redistribute it and/or modify it under the terms  |
             | of the GNU General Public License as published by |
             | the Free Software Foundation; either version 2 of |
             | the License, or (at your option) any later version|
             |                                                   |
             | This program is distributed in the hope that it   |
             | will be useful, but WITHOUT ANY WARRANTY; without |
             | even the implied warranty of MERCHANTABILITY or   |
             | FITNESS FOR A PARTICULAR PURPOSE. See the GNU     |
             | General Public License for more details.          |
             |                                                   |
             | You should have received a copy of the GNU General|
             | Public License along with this program; if not,   |
             | write to the Free Software Foundation, Inc.,      |
             | 675 Mass Ave, Cambridge, MA 02139, USA.           |
             |                                                   |
             +---------------------------------------------------+
             |    Execution started on  8Apr2024 at 15:13:24     |
             +---------------------------------------------------+
 
 ******************************************************************************
 * -> Using CODATA 2006 constant values                                       *
 *    (http://physics.nist.gov/cuu/Constants/index.html)                      *
 * -> Using Bohr value from CODATA                                            *
 ******************************************************************************
 

 Running in parallel on  16 CPUs

 
                                    ------
                                    SYSTEM
                                    ------
 
                              Lattice Vectors (Ang)
                    a_1    -2.875091   0.000000   2.875091
                    a_2     0.000000   2.875091   2.875091
                    a_3    -2.875091   2.875091   0.000000
 
                   Unit Cell Volume:      47.53186  (Ang^3)
 
                        Reciprocal-Space Vectors (Ang^-1)
                    b_1    -1.092693  -1.092693   1.092693
                    b_2     1.092693   1.092693   1.092693
                    b_3    -1.092693   1.092693  -1.092693
  
 *----------------------------------------------------------------------------*
 |   Site       Fractional Coordinate          Cartesian Coordinate (Ang)     |
 +----------------------------------------------------------------------------+
 | Ga   1   0.00000   0.00000   0.00000   |    0.00000   0.00000   0.00000    |
 | As   1   0.25000   0.25000   0.25000   |   -1.43755   1.43755   1.43755    |
 *----------------------------------------------------------------------------*
                                ------------
                                K-POINT GRID
                                ------------
  
             Grid size = 12 x 12 x 12      Total points = 1728
  
  
 *---------------------------------- MAIN ------------------------------------*
 |  Number of Wannier Functions               :                 3             |
 |  Number of Objective Wannier Functions     :                 3             |
 |  Number of input Bloch states              :                 3             |
 |  Output verbosity (1=low, 5=high)          :                 1             |
 |  Timing Level (1=low, 5=high)              :                 1             |
 |  Optimisation (0=memory, 3=speed)          :                 3             |
 |  Length Unit                               :               Ang             |
 |  Post-processing setup (write *.nnkp)      :                 F             |
 |  Using Gamma-only branch of algorithms     :                 F             |
 *----------------------------------------------------------------------------*
 *------------------------------- WANNIERISE ---------------------------------*
 |  Total number of iterations                :               500             |
 |  Number of CG steps before reset           :                 5             |
 |  Trial step length for line search         :             2.000             |
 |  Convergence tolerence                     :         0.100E-09             |
 |  Convergence window                        :                -1             |
 |  Iterations between writing output         :                 1             |
 |  Iterations between backing up to disk     :               100             |
 |  Write r^2_nm to file                      :                 F             |
 |  Write xyz WF centres to file              :                 F             |
 |  Write on-site energies <0n|H|0n> to file  :                 F             |
 |  Use guiding centre to control phases      :                 F             |
 |  Use phases for initial projections        :                 F             |
 *----------------------------------------------------------------------------*
 Time to read parameters        0.096 (sec)

 *---------------------------------- K-MESH ----------------------------------*
 +----------------------------------------------------------------------------+
 |                    Distance to Nearest-Neighbour Shells                    |
 |                    ------------------------------------                    |
 |          Shell             Distance (Ang^-1)          Multiplicity         |
 |          -----             -----------------          ------------         |
 |             1                   0.157717                      8            |
 |             2                   0.182116                      6            |
 |             3                   0.257550                     12            |
 |             4                   0.302004                     24            |
 |             5                   0.315433                      8            |
 |             6                   0.364231                      6            |
 |             7                   0.396912                     24            |
 |             8                   0.407223                     24            |
 |             9                   0.446090                     24            |
 |            10                   0.473150                     32            |
 |            11                   0.515101                     12            |
 |            12                   0.538705                     48            |
 |            13                   0.546347                     30            |
 |            14                   0.575900                     24            |
 |            15                   0.597106                     24            |
 |            16                   0.604009                     24            |
 |            17                   0.630867                      8            |
 |            18                   0.650283                     48            |
 |            19                   0.656627                     24            |
 |            20                   0.681414                     48            |
 |            21                   0.699428                     72            |
 |            22                   0.728462                      6            |
 |            23                   0.745340                     24            |
 |            24                   0.750882                     48            |
 |            25                   0.772651                     36            |
 |            26                   0.788583                     56            |
 |            27                   0.793823                     24            |
 |            28                   0.814445                     24            |
 |            29                   0.829576                     72            |
 |            30                   0.834558                     48            |
 |            31                   0.854198                     24            |
 |            32                   0.868636                     48            |
 |            33                   0.892180                     24            |
 |            34                   0.906013                     72            |
 |            35                   0.910578                     30            |
 |            36                   0.928611                     72            |
 +----------------------------------------------------------------------------+
 | The b-vectors are chosen automatically                                     |
 | The following shells are used:   1                                         |
 +----------------------------------------------------------------------------+
 |                        Shell   # Nearest-Neighbours                        |
 |                        -----   --------------------                        |
 |                          1               8                                 |
 +----------------------------------------------------------------------------+
 | Completeness relation is fully satisfied [Eq. (B1), PRB 56, 12847 (1997)]  |
 +----------------------------------------------------------------------------+
 |                  b_k Vectors (Ang^-1) and Weights (Ang^2)                  |
 |                  ----------------------------------------                  |
 |            No.         b_k(x)      b_k(y)      b_k(z)        w_b           |
 |            ---        --------------------------------     --------        |
 |             1        -0.091058    0.091058   -0.091058    15.075648        |
 |             2         0.091058    0.091058    0.091058    15.075648        |
 |             3        -0.091058   -0.091058    0.091058    15.075648        |
 |             4        -0.091058    0.091058    0.091058    15.075648        |
 |             5         0.091058   -0.091058    0.091058    15.075648        |
 |             6        -0.091058   -0.091058   -0.091058    15.075648        |
 |             7         0.091058    0.091058   -0.091058    15.075648        |
 |             8         0.091058   -0.091058   -0.091058    15.075648        |
 +----------------------------------------------------------------------------+
 |                           b_k Directions (Ang^-1)                          |
 |                           -----------------------                          |
 |            No.           x           y           z                         |
 |            ---        --------------------------------                     |
 |             1        -0.091058    0.091058   -0.091058                     |
 |             2         0.091058    0.091058    0.091058                     |
 |             3        -0.091058   -0.091058    0.091058                     |
 |             4        -0.091058    0.091058    0.091058                     |
 +----------------------------------------------------------------------------+
  
 Time to get kmesh              0.760 (sec)
 *============================================================================*
 |                              MEMORY ESTIMATE                               |
 |         Maximum RAM allocated during each phase of the calculation         |
 *============================================================================*
 |                            Wannierise:            7.00 Mb                  |
 |                          plot_wannier:            7.00 Mb                  |
 *----------------------------------------------------------------------------*
  
 Starting a new Wannier90 calculation ...


 Reading overlaps from mp-2534.mmn    :  Created on  8Apr2024 at 15:13:17

 Reading projections from mp-2534.amn :  Created on  8Apr2024 at 15:13:16  with SCDM

 Time to read overlaps          0.117 (sec)

 Writing checkpoint file mp-2534.chk... done

 
 *------------------------------- WANNIERISE ---------------------------------*
 +--------------------------------------------------------------------+<-- CONV
 | Iter  Delta Spread     RMS Gradient      Spread (Ang^2)      Time  |<-- CONV
 +--------------------------------------------------------------------+<-- CONV
 
 ------------------------------------------------------------------------------
 Initial State
  WF centre and spread    1  (  1.197738, -1.071760,  1.204152 )     5.01414563
  WF centre and spread    2  ( -1.619413,  1.189326,  1.798825 )     5.16403047
  WF centre and spread    3  ( -1.016915,  1.323022,  1.310896 )     5.12561731
  Sum of centres and spreads ( -1.438590,  1.440588,  4.313873 )    15.30379342
 
      0     0.153E+02     0.0000000000       15.3037946805       0.00  <-- CONV
        O_D=      1.5787705 O_OD=      2.5592448 O_TOT=     15.3037947 <-- SPRD
 ------------------------------------------------------------------------------
 Cycle:      1
  WF centre and spread    1  (  1.196380, -1.071761,  1.200431 )     4.54451276
  WF centre and spread    2  ( -1.621311,  1.186941,  1.799430 )     4.64171042
  WF centre and spread    3  ( -1.014592,  1.323802,  1.312870 )     4.61148130
  Sum of centres and spreads ( -1.439523,  1.438982,  4.312732 )    13.79770448
 
      1    -0.151E+01     0.4190242675       13.7977057410       0.01  <-- CONV
        O_D=      0.9142798 O_OD=      1.7176465 O_TOT=     13.7977057 <-- SPRD
 Delta: O_D= -0.6644906E+00 O_OD= -0.8415983E+00 O_TOT= -0.1506089E+01 <-- DLTA
 ------------------------------------------------------------------------------
 Cycle:      2
  WF centre and spread    1  (  1.197575, -1.076302,  1.200340 )     4.23539469
  WF centre and spread    2  ( -1.620383,  1.187592,  1.795272 )     4.29333696
  WF centre and spread    3  ( -1.017686,  1.326348,  1.316085 )     4.27321917
  Sum of centres and spreads ( -1.440494,  1.437638,  4.311696 )    12.80195082
 
      2    -0.996E+00     0.4577249134       12.8019520834       0.01  <-- CONV
        O_D=      0.4376825 O_OD=      1.1984902 O_TOT=     12.8019521 <-- SPRD
 Delta: O_D= -0.4765973E+00 O_OD= -0.5191563E+00 O_TOT= -0.9957537E+00 <-- DLTA
 ------------------------------------------------------------------------------
 Cycle:      3
  WF centre and spread    1  (  1.199437, -1.080350,  1.201831 )     4.08824875
  WF centre and spread    2  ( -1.618817,  1.189493,  1.791386 )     4.12552857
  WF centre and spread    3  ( -1.021602,  1.328070,  1.318113 )     4.10714512
  Sum of centres and spreads ( -1.440982,  1.437213,  4.311330 )    12.32092244
 
      3    -0.481E+00     0.4105184029       12.3209237107       0.02  <-- CONV
        O_D=      0.2028952 O_OD=      0.9522491 O_TOT=     12.3209237 <-- SPRD
 Delta: O_D= -0.2347873E+00 O_OD= -0.2462410E+00 O_TOT= -0.4810284E+00 <-- DLTA
 ------------------------------------------------------------------------------
 Cycle:      4
  WF centre and spread    1  (  1.200833, -1.082854,  1.203070 )     4.01303119
  WF centre and spread    2  ( -1.617803,  1.191121,  1.789010 )     4.03966741
  WF centre and spread    3  ( -1.024370,  1.328734,  1.319012 )     4.02445222
  Sum of centres and spreads ( -1.441340,  1.437002,  4.311093 )    12.07715082
 
      4    -0.244E+00     0.3147465294       12.0771520917       0.02  <-- CONV
        O_D=      0.0880122 O_OD=      0.8233605 O_TOT=     12.0771521 <-- SPRD
 Delta: O_D= -0.1148830E+00 O_OD= -0.1288886E+00 O_TOT= -0.2437716E+00 <-- DLTA
 ------------------------------------------------------------------------------
 Cycle:      5
  WF centre and spread    1  (  1.201438, -1.083890,  1.203555 )     3.98276904
  WF centre and spread    2  ( -1.617592,  1.191943,  1.788089 )     4.00550866
  WF centre and spread    3  ( -1.025627,  1.328643,  1.319109 )     3.99398048
  Sum of centres and spreads ( -1.441781,  1.436696,  4.310754 )    11.98225818
 
      5    -0.949E-01     0.1911085480       11.9822594525       0.03  <-- CONV
        O_D=      0.0539976 O_OD=      0.7624824 O_TOT=     11.9822595 <-- SPRD
 Delta: O_D= -0.3401456E-01 O_OD= -0.6087808E-01 O_TOT= -0.9489264E-01 <-- DLTA
 ------------------------------------------------------------------------------
 Cycle:      6
  WF centre and spread    1  (  1.201734, -1.084411,  1.203688 )     3.96519561
  WF centre and spread    2  ( -1.617725,  1.192387,  1.787691 )     3.98639576
  WF centre and spread    3  ( -1.026313,  1.328321,  1.318955 )     3.98001800
  Sum of centres and spreads ( -1.442304,  1.436298,  4.310333 )    11.93160938
 
      6    -0.506E-01     0.1377767803       11.9316106459       0.04  <-- CONV
        O_D=      0.0377009 O_OD=      0.7281304 O_TOT=     11.9316106 <-- SPRD
 Delta: O_D= -0.1629672E-01 O_OD= -0.3435209E-01 O_TOT= -0.5064881E-01 <-- DLTA
 ------------------------------------------------------------------------------
 Cycle:      7
  WF centre and spread    1  (  1.201778, -1.084437,  1.203660 )     3.95943739
  WF centre and spread    2  ( -1.617819,  1.192436,  1.787703 )     3.98004788
  WF centre and spread    3  ( -1.026359,  1.328218,  1.318891 )     3.97531224
  Sum of centres and spreads ( -1.442400,  1.436216,  4.310254 )    11.91479752
 
      7    -0.168E-01     0.0974843951       11.9147987861       0.04  <-- CONV
        O_D=      0.0305739 O_OD=      0.7184455 O_TOT=     11.9147988 <-- SPRD
 Delta: O_D= -0.7126965E-02 O_OD= -0.9684895E-02 O_TOT= -0.1681186E-01 <-- DLTA
 ------------------------------------------------------------------------------
 Cycle:      8
  WF centre and spread    1  (  1.201880, -1.084478,  1.203576 )     3.95404439
  WF centre and spread    2  ( -1.618053,  1.192534,  1.787759 )     3.97449271
  WF centre and spread    3  ( -1.026448,  1.327964,  1.318729 )     3.97346646
  Sum of centres and spreads ( -1.442621,  1.436020,  4.310065 )    11.90200355
 
      8    -0.128E-01     0.0649988430       11.9020048199       0.05  <-- CONV
        O_D=      0.0280906 O_OD=      0.7081348 O_TOT=     11.9020048 <-- SPRD
 Delta: O_D= -0.2483319E-02 O_OD= -0.1031065E-01 O_TOT= -0.1279397E-01 <-- DLTA
 ------------------------------------------------------------------------------
 Cycle:      9
  WF centre and spread    1  (  1.202061, -1.084564,  1.203480 )     3.94952007
  WF centre and spread    2  ( -1.618345,  1.192685,  1.787807 )     3.96982257
  WF centre and spread    3  ( -1.026584,  1.327671,  1.318561 )     3.97342035
  Sum of centres and spreads ( -1.442868,  1.435792,  4.309848 )    11.89276299
 
      9    -0.924E-02     0.0533616597       11.8927642626       0.05  <-- CONV
        O_D=      0.0266975 O_OD=      0.7002874 O_TOT=     11.8927643 <-- SPRD
 Delta: O_D= -0.1393132E-02 O_OD= -0.7847425E-02 O_TOT= -0.9240557E-02 <-- DLTA
 ------------------------------------------------------------------------------
 Cycle:     10
  WF centre and spread    1  (  1.202328, -1.084716,  1.203435 )     3.94628125
  WF centre and spread    2  ( -1.618581,  1.192892,  1.787799 )     3.96633367
  WF centre and spread    3  ( -1.026768,  1.327468,  1.318480 )     3.97400241
  Sum of centres and spreads ( -1.443022,  1.435644,  4.309714 )    11.88661733
 
     10    -0.615E-02     0.0461661837       11.8866185973       0.06  <-- CONV
        O_D=      0.0254540 O_OD=      0.6953851 O_TOT=     11.8866186 <-- SPRD
 Delta: O_D= -0.1243415E-02 O_OD= -0.4902251E-02 O_TOT= -0.6145665E-02 <-- DLTA
 ------------------------------------------------------------------------------
 Cycle:     11
  WF centre and spread    1  (  1.202706, -1.084941,  1.203445 )     3.94396805
  WF centre and spread    2  ( -1.618768,  1.193177,  1.787738 )     3.96360929
  WF centre and spread    3  ( -1.027016,  1.327346,  1.318487 )     3.97468640
  Sum of centres and spreads ( -1.443078,  1.435582,  4.309669 )    11.88226374
 
     11    -0.435E-02     0.0361534243       11.8822650104       0.06  <-- CONV
        O_D=      0.0244834 O_OD=      0.6920022 O_TOT=     11.8822650 <-- SPRD
 Delta: O_D= -0.9706441E-03 O_OD= -0.3382943E-02 O_TOT= -0.4353587E-02 <-- DLTA
 ------------------------------------------------------------------------------
 Cycle:     12
  WF centre and spread    1  (  1.203068, -1.085131,  1.203462 )     3.94273514
  WF centre and spread    2  ( -1.618919,  1.193435,  1.787694 )     3.96194673
  WF centre and spread    3  ( -1.027223,  1.327265,  1.318518 )     3.97519685
  Sum of centres and spreads ( -1.443074,  1.435568,  4.309674 )    11.87987871
 
     12    -0.239E-02     0.0276726399       11.8798799833       0.06  <-- CONV
        O_D=      0.0239787 O_OD=      0.6901219 O_TOT=     11.8798800 <-- SPRD
 Delta: O_D= -0.5046887E-03 O_OD= -0.1880338E-02 O_TOT= -0.2385027E-02 <-- DLTA
 ------------------------------------------------------------------------------
 Cycle:     13
  WF centre and spread    1  (  1.203134, -1.085136,  1.203446 )     3.94251714
  WF centre and spread    2  ( -1.618973,  1.193470,  1.787720 )     3.96161430
  WF centre and spread    3  ( -1.027241,  1.327223,  1.318502 )     3.97493724
  Sum of centres and spreads ( -1.443080,  1.435557,  4.309667 )    11.87906868
 
     13    -0.810E-03     0.0216483714       11.8790699472       0.07  <-- CONV
        O_D=      0.0236611 O_OD=      0.6896294 O_TOT=     11.8790699 <-- SPRD
 Delta: O_D= -0.3175946E-03 O_OD= -0.4924415E-03 O_TOT= -0.8100361E-03 <-- DLTA
 ------------------------------------------------------------------------------
 Cycle:     14
  WF centre and spread    1  (  1.203377, -1.085148,  1.203382 )     3.94231087
  WF centre and spread    2  ( -1.619172,  1.193600,  1.787820 )     3.96108601
  WF centre and spread    3  ( -1.027299,  1.327070,  1.318447 )     3.97469566
  Sum of centres and spreads ( -1.443095,  1.435522,  4.309649 )    11.87809254
 
     14    -0.976E-03     0.0150065612       11.8780938118       0.07  <-- CONV
        O_D=      0.0235952 O_OD=      0.6887192 O_TOT=     11.8780938 <-- SPRD
 Delta: O_D= -0.6595293E-04 O_OD= -0.9101825E-03 O_TOT= -0.9761354E-03 <-- DLTA
 ------------------------------------------------------------------------------
 Cycle:     15
  WF centre and spread    1  (  1.203657, -1.085152,  1.203305 )     3.94218541
  WF centre and spread    2  ( -1.619402,  1.193748,  1.787945 )     3.96060771
  WF centre and spread    3  ( -1.027358,  1.326899,  1.318390 )     3.97461383
  Sum of centres and spreads ( -1.443102,  1.435495,  4.309641 )    11.87740695
 
     15    -0.686E-03     0.0151804562       11.8774082220       0.08  <-- CONV
        O_D=      0.0234781 O_OD=      0.6881507 O_TOT=     11.8774082 <-- SPRD
 Delta: O_D= -0.1170338E-03 O_OD= -0.5685560E-03 O_TOT= -0.6855897E-03 <-- DLTA
 ------------------------------------------------------------------------------
 Cycle:     16
  WF centre and spread    1  (  1.203936, -1.085145,  1.203224 )     3.94210419
  WF centre and spread    2  ( -1.619635,  1.193895,  1.788081 )     3.96020860
  WF centre and spread    3  ( -1.027405,  1.326727,  1.318335 )     3.97467766
  Sum of centres and spreads ( -1.443104,  1.435478,  4.309640 )    11.87699045
 
     16    -0.417E-03     0.0116876203       11.8769917199       0.08  <-- CONV
        O_D=      0.0234243 O_OD=      0.6877880 O_TOT=     11.8769917 <-- SPRD
 Delta: O_D= -0.5384169E-04 O_OD= -0.3626605E-03 O_TOT= -0.4165022E-03 <-- DLTA
 ------------------------------------------------------------------------------
 Cycle:     17
  WF centre and spread    1  (  1.204343, -1.085115,  1.203087 )     3.94200887
  WF centre and spread    2  ( -1.620002,  1.194109,  1.788302 )     3.95967321
  WF centre and spread    3  ( -1.027458,  1.326454,  1.318242 )     3.97489588
  Sum of centres and spreads ( -1.443117,  1.435448,  4.309632 )    11.87657796
 
     17    -0.412E-03     0.0101218285       11.8765792309       0.09  <-- CONV
        O_D=      0.0233902 O_OD=      0.6874097 O_TOT=     11.8765792 <-- SPRD
 Delta: O_D= -0.3412255E-04 O_OD= -0.3783664E-03 O_TOT= -0.4124889E-03 <-- DLTA
 ------------------------------------------------------------------------------
 Cycle:     18
  WF centre and spread    1  (  1.204789, -1.085060,  1.202913 )     3.94191987
  WF centre and spread    2  ( -1.620441,  1.194339,  1.788574 )     3.95910883
  WF centre and spread    3  ( -1.027498,  1.326124,  1.318120 )     3.97519467
  Sum of centres and spreads ( -1.443150,  1.435402,  4.309607 )    11.87622337
 
     18    -0.355E-03     0.0102642911       11.8762246380       0.09  <-- CONV
        O_D=      0.0233980 O_OD=      0.6870472 O_TOT=     11.8762246 <-- SPRD
 Delta: O_D=  0.7873924E-05 O_OD= -0.3624669E-03 O_TOT= -0.3545929E-03 <-- DLTA
 ------------------------------------------------------------------------------
 Cycle:     19
  WF centre and spread    1  (  1.204836, -1.085041,  1.202884 )     3.94185625
  WF centre and spread    2  ( -1.620505,  1.194359,  1.788617 )     3.95899190
  WF centre and spread    3  ( -1.027492,  1.326073,  1.318096 )     3.97515098
  Sum of centres and spreads ( -1.443161,  1.435391,  4.309598 )    11.87599913
 
     19    -0.224E-03     0.0115769912       11.8760004037       0.09  <-- CONV
        O_D=      0.0232939 O_OD=      0.6869271 O_TOT=     11.8760004 <-- SPRD
 Delta: O_D= -0.1041060E-03 O_OD= -0.1201283E-03 O_TOT= -0.2242343E-03 <-- DLTA
 ------------------------------------------------------------------------------
 Cycle:     20
  WF centre and spread    1  (  1.204977, -1.084987,  1.202801 )     3.94180917
  WF centre and spread    2  ( -1.620689,  1.194424,  1.788745 )     3.95881094
  WF centre and spread    3  ( -1.027478,  1.325926,  1.318028 )     3.97517402
  Sum of centres and spreads ( -1.443190,  1.435363,  4.309574 )    11.87579413
 
     20    -0.205E-03     0.0076963631       11.8757953995       0.10  <-- CONV
        O_D=      0.0232584 O_OD=      0.6867576 O_TOT=     11.8757954 <-- SPRD
 Delta: O_D= -0.3551862E-04 O_OD= -0.1694856E-03 O_TOT= -0.2050042E-03 <-- DLTA
 ------------------------------------------------------------------------------
 Cycle:     21
  WF centre and spread    1  (  1.205220, -1.084909,  1.202678 )     3.94179067
  WF centre and spread    2  ( -1.620975,  1.194542,  1.788944 )     3.95857924
  WF centre and spread    3  ( -1.027464,  1.325700,  1.317929 )     3.97523716
  Sum of centres and spreads ( -1.443219,  1.435332,  4.309551 )    11.87560707
 
     21    -0.187E-03     0.0071810849       11.8756083399       0.10  <-- CONV
        O_D=      0.0232468 O_OD=      0.6865821 O_TOT=     11.8756083 <-- SPRD
 Delta: O_D= -0.1160474E-04 O_OD= -0.1754549E-03 O_TOT= -0.1870596E-03 <-- DLTA
 ------------------------------------------------------------------------------
 Cycle:     22
  WF centre and spread    1  (  1.205696, -1.084784,  1.202478 )     3.94181684
  WF centre and spread    2  ( -1.621476,  1.194780,  1.789291 )     3.95821316
  WF centre and spread    3  ( -1.027458,  1.325309,  1.317770 )     3.97532998
  Sum of centres and spreads ( -1.443239,  1.435305,  4.309540 )    11.87535998
 
     22    -0.247E-03     0.0074571038       11.8753612516       0.10  <-- CONV
        O_D=      0.0232661 O_OD=      0.6863157 O_TOT=     11.8753613 <-- SPRD
 Delta: O_D=  0.1932710E-04 O_OD= -0.2664153E-03 O_TOT= -0.2470882E-03 <-- DLTA
 ------------------------------------------------------------------------------
 Cycle:     23
  WF centre and spread    1  (  1.206625, -1.084575,  1.202133 )     3.94194695
  WF centre and spread    2  ( -1.622393,  1.195262,  1.789916 )     3.95759312
  WF centre and spread    3  ( -1.027476,  1.324594,  1.317495 )     3.97542327
  Sum of centres and spreads ( -1.443244,  1.435280,  4.309544 )    11.87496334
 
     23    -0.397E-03     0.0092561040       11.8749646091       0.11  <-- CONV
        O_D=      0.0232751 O_OD=      0.6859101 O_TOT=     11.8749646 <-- SPRD
 Delta: O_D=  0.8932009E-05 O_OD= -0.4055746E-03 O_TOT= -0.3966426E-03 <-- DLTA
 ------------------------------------------------------------------------------
 Cycle:     24
  WF centre and spread    1  (  1.207650, -1.084372,  1.201787 )     3.94215278
  WF centre and spread    2  ( -1.623369,  1.195804,  1.790563 )     3.95699030
  WF centre and spread    3  ( -1.027520,  1.323826,  1.317207 )     3.97543204
  Sum of centres and spreads ( -1.443238,  1.435258,  4.309557 )    11.87457512
 
     24    -0.388E-03     0.0108369204       11.8745763904       0.11  <-- CONV
        O_D=      0.0233470 O_OD=      0.6854500 O_TOT=     11.8745764 <-- SPRD
 Delta: O_D=  0.7189477E-04 O_OD= -0.4601135E-03 O_TOT= -0.3882187E-03 <-- DLTA
 ------------------------------------------------------------------------------
 Cycle:     25
  WF centre and spread    1  (  1.207710, -1.084364,  1.201776 )     3.94210822
  WF centre and spread    2  ( -1.623419,  1.195838,  1.790594 )     3.95689737
  WF centre and spread    3  ( -1.027528,  1.323781,  1.317186 )     3.97525820
  Sum of centres and spreads ( -1.443237,  1.435255,  4.309555 )    11.87426379
 
     25    -0.311E-03     0.0127517157       11.8742650588       0.11  <-- CONV
        O_D=      0.0232474 O_OD=      0.6852382 O_TOT=     11.8742651 <-- SPRD
 Delta: O_D= -0.9956780E-04 O_OD= -0.2117638E-03 O_TOT= -0.3113316E-03 <-- DLTA
 ------------------------------------------------------------------------------
 Cycle:     26
  WF centre and spread    1  (  1.207875, -1.084339,  1.201745 )     3.94213864
  WF centre and spread    2  ( -1.623557,  1.195931,  1.790683 )     3.95681527
  WF centre and spread    3  ( -1.027549,  1.323657,  1.317129 )     3.97499248
  Sum of centres and spreads ( -1.443230,  1.435249,  4.309557 )    11.87394639
 
     26    -0.317E-03     0.0097299076       11.8739476633       0.12  <-- CONV
        O_D=      0.0232174 O_OD=      0.6849509 O_TOT=     11.8739477 <-- SPRD
 Delta: O_D= -0.3002984E-04 O_OD= -0.2873656E-03 O_TOT= -0.3173955E-03 <-- DLTA
 ------------------------------------------------------------------------------
 Cycle:     27
  WF centre and spread    1  (  1.208081, -1.084302,  1.201707 )     3.94220815
  WF centre and spread    2  ( -1.623726,  1.196047,  1.790798 )     3.95675069
  WF centre and spread    3  ( -1.027571,  1.323507,  1.317062 )     3.97476187
  Sum of centres and spreads ( -1.443216,  1.435251,  4.309566 )    11.87372071
 
     27    -0.226E-03     0.0089134627       11.8737219847       0.12  <-- CONV
        O_D=      0.0231829 O_OD=      0.6847596 O_TOT=     11.8737220 <-- SPRD
 Delta: O_D= -0.3441715E-04 O_OD= -0.1912615E-03 O_TOT= -0.2256786E-03 <-- DLTA
 ------------------------------------------------------------------------------
 Cycle:     28
  WF centre and spread    1  (  1.208300, -1.084260,  1.201665 )     3.94227822
  WF centre and spread    2  ( -1.623906,  1.196170,  1.790922 )     3.95668998
  WF centre and spread    3  ( -1.027593,  1.323349,  1.316994 )     3.97461213
  Sum of centres and spreads ( -1.443199,  1.435259,  4.309581 )    11.87358032
 
     28    -0.140E-03     0.0068554734       11.8735815964       0.12  <-- CONV
        O_D=      0.0231824 O_OD=      0.6846198 O_TOT=     11.8735816 <-- SPRD
 Delta: O_D= -0.5302972E-06 O_OD= -0.1398580E-03 O_TOT= -0.1403883E-03 <-- DLTA
 ------------------------------------------------------------------------------
 Cycle:     29
  WF centre and spread    1  (  1.208635, -1.084189,  1.201596 )     3.94237147
  WF centre and spread    2  ( -1.624193,  1.196360,  1.791120 )     3.95658714
  WF centre and spread    3  ( -1.027622,  1.323095,  1.316883 )     3.97447949
  Sum of centres and spreads ( -1.443181,  1.435266,  4.309598 )    11.87343810
 
     29    -0.142E-03     0.0059624511       11.8734393740       0.13  <-- CONV
        O_D=      0.0231932 O_OD=      0.6844668 O_TOT=     11.8734394 <-- SPRD
 Delta: O_D=  0.1073708E-04 O_OD= -0.1529595E-03 O_TOT= -0.1422224E-03 <-- DLTA
 ------------------------------------------------------------------------------
 Cycle:     30
  WF centre and spread    1  (  1.209119, -1.084078,  1.201484 )     3.94249028
  WF centre and spread    2  ( -1.624630,  1.196632,  1.791416 )     3.95642088
  WF centre and spread    3  ( -1.027660,  1.322708,  1.316708 )     3.97436429
  Sum of centres and spreads ( -1.443172,  1.435262,  4.309608 )    11.87327544
 
     30    -0.163E-03     0.0064799698       11.8732767113       0.13  <-- CONV
        O_D=      0.0232468 O_OD=      0.6842505 O_TOT=     11.8732767 <-- SPRD
 Delta: O_D=  0.5361878E-04 O_OD= -0.2162815E-03 O_TOT= -0.1626627E-03 <-- DLTA
 ------------------------------------------------------------------------------
 Cycle:     31
  WF centre and spread    1  (  1.209163, -1.084063,  1.201466 )     3.94245333
  WF centre and spread    2  ( -1.624683,  1.196655,  1.791450 )     3.95634691
  WF centre and spread    3  ( -1.027660,  1.322660,  1.316683 )     3.97433462
  Sum of centres and spreads ( -1.443180,  1.435253,  4.309600 )    11.87313486
 
     31    -0.141E-03     0.0088022987       11.8731361362       0.13  <-- CONV
        O_D=      0.0231875 O_OD=      0.6841692 O_TOT=     11.8731361 <-- SPRD
 Delta: O_D= -0.5929222E-04 O_OD= -0.8128284E-04 O_TOT= -0.1405751E-03 <-- DLTA
 ------------------------------------------------------------------------------
 Cycle:     32
  WF centre and spread    1  (  1.209289, -1.084019,  1.201421 )     3.94243218
  WF centre and spread    2  ( -1.624828,  1.196723,  1.791546 )     3.95623543
  WF centre and spread    3  ( -1.027661,  1.322529,  1.316616 )     3.97434155
  Sum of centres and spreads ( -1.443199,  1.435232,  4.309583 )    11.87300916
 
     32    -0.126E-03     0.0060137785       11.8730104336       0.14  <-- CONV
        O_D=      0.0231658 O_OD=      0.6840652 O_TOT=     11.8730104 <-- SPRD
 Delta: O_D= -0.2162898E-04 O_OD= -0.1040736E-03 O_TOT= -0.1257026E-03 <-- DLTA
 ------------------------------------------------------------------------------
 Cycle:     33
  WF centre and spread    1  (  1.209518, -1.083950,  1.201352 )     3.94243142
  WF centre and spread    2  ( -1.625068,  1.196847,  1.791706 )     3.95608009
  WF centre and spread    3  ( -1.027669,  1.322312,  1.316508 )     3.97437137
  Sum of centres and spreads ( -1.443219,  1.435210,  4.309567 )    11.87288289
 
     33    -0.126E-03     0.0057992419       11.8728841595       0.14  <-- CONV
        O_D=      0.0231537 O_OD=      0.6839511 O_TOT=     11.8728842 <-- SPRD
 Delta: O_D= -0.1218013E-04 O_OD= -0.1140940E-03 O_TOT= -0.1262741E-03 <-- DLTA
 ------------------------------------------------------------------------------
 Cycle:     34
  WF centre and spread    1  (  1.209947, -1.083836,  1.201248 )     3.94246619
  WF centre and spread    2  ( -1.625480,  1.197089,  1.791983 )     3.95583553
  WF centre and spread    3  ( -1.027696,  1.321939,  1.316331 )     3.97441273
  Sum of centres and spreads ( -1.443229,  1.435192,  4.309561 )    11.87271445
 
     34    -0.168E-03     0.0062770950       11.8727157183       0.14  <-- CONV
        O_D=      0.0231656 O_OD=      0.6837707 O_TOT=     11.8727157 <-- SPRD
 Delta: O_D=  0.1195506E-04 O_OD= -0.1803963E-03 O_TOT= -0.1684412E-03 <-- DLTA
 ------------------------------------------------------------------------------
 Cycle:     35
  WF centre and spread    1  (  1.210682, -1.083661,  1.201095 )     3.94257574
  WF centre and spread    2  ( -1.626148,  1.197509,  1.792426 )     3.95546778
  WF centre and spread    3  ( -1.027759,  1.321330,  1.316048 )     3.97443085
  Sum of centres and spreads ( -1.443225,  1.435179,  4.309569 )    11.87247437
 
     35    -0.240E-03     0.0075992436       11.8724756430       0.15  <-- CONV
        O_D=      0.0231648 O_OD=      0.6835314 O_TOT=     11.8724756 <-- SPRD
 Delta: O_D= -0.8133625E-06 O_OD= -0.2392619E-03 O_TOT= -0.2400753E-03 <-- DLTA
 ------------------------------------------------------------------------------
 Cycle:     36
  WF centre and spread    1  (  1.211498, -1.083482,  1.200946 )     3.94274476
  WF centre and spread    2  ( -1.626868,  1.197984,  1.792893 )     3.95510858
  WF centre and spread    3  ( -1.027844,  1.320666,  1.315742 )     3.97438518
  Sum of centres and spreads ( -1.443214,  1.435167,  4.309581 )    11.87223852
 
     36    -0.236E-03     0.0084410652       11.8722397908       0.15  <-- CONV
        O_D=      0.0232113 O_OD=      0.6832491 O_TOT=     11.8722398 <-- SPRD
 Delta: O_D=  0.4645418E-04 O_OD= -0.2823064E-03 O_TOT= -0.2358522E-03 <-- DLTA
 ------------------------------------------------------------------------------
 Cycle:     37
  WF centre and spread    1  (  1.211548, -1.083474,  1.200942 )     3.94272423
  WF centre and spread    2  ( -1.626909,  1.198014,  1.792918 )     3.95504638
  WF centre and spread    3  ( -1.027853,  1.320623,  1.315718 )     3.97426772
  Sum of centres and spreads ( -1.443214,  1.435163,  4.309578 )    11.87203833
 
     37    -0.200E-03     0.0101526474       11.8720396057       0.15  <-- CONV
        O_D=      0.0231505 O_OD=      0.6831097 O_TOT=     11.8720396 <-- SPRD
 Delta: O_D= -0.6075389E-04 O_OD= -0.1394312E-03 O_TOT= -0.2001851E-03 <-- DLTA
 ------------------------------------------------------------------------------
 Cycle:     38
  WF centre and spread    1  (  1.211685, -1.083448,  1.200933 )     3.94276570
  WF centre and spread    2  ( -1.627019,  1.198097,  1.792988 )     3.95498838
  WF centre and spread    3  ( -1.027877,  1.320506,  1.315654 )     3.97408508
  Sum of centres and spreads ( -1.443211,  1.435155,  4.309576 )    11.87183916
 
     38    -0.199E-03     0.0076758358       11.8718404308       0.15  <-- CONV
        O_D=      0.0231341 O_OD=      0.6829269 O_TOT=     11.8718404 <-- SPRD
 Delta: O_D= -0.1644024E-04 O_OD= -0.1827347E-03 O_TOT= -0.1991749E-03 <-- DLTA
 ------------------------------------------------------------------------------
 Cycle:     39
  WF centre and spread    1  (  1.211862, -1.083411,  1.200923 )     3.94283582
  WF centre and spread    2  ( -1.627158,  1.198204,  1.793082 )     3.95493443
  WF centre and spread    3  ( -1.027906,  1.320360,  1.315577 )     3.97391976
  Sum of centres and spreads ( -1.443202,  1.435154,  4.309581 )    11.87169000
 
     39    -0.149E-03     0.0071796617       11.8716912774       0.16  <-- CONV
        O_D=      0.0231115 O_OD=      0.6828004 O_TOT=     11.8716913 <-- SPRD
 Delta: O_D= -0.2261098E-04 O_OD= -0.1265424E-03 O_TOT= -0.1491534E-03 <-- DLTA
 ------------------------------------------------------------------------------
 Cycle:     40
  WF centre and spread    1  (  1.212051, -1.083369,  1.200912 )     3.94290155
  WF centre and spread    2  ( -1.627305,  1.198320,  1.793182 )     3.95487810
  WF centre and spread    3  ( -1.027935,  1.320208,  1.315497 )     3.97381441
  Sum of centres and spreads ( -1.443188,  1.435158,  4.309592 )    11.87159406
 
     40    -0.959E-04     0.0057167662       11.8715953334       0.16  <-- CONV
        O_D=      0.0231153 O_OD=      0.6827006 O_TOT=     11.8715953 <-- SPRD
 Delta: O_D=  0.3848589E-05 O_OD= -0.9979255E-04 O_TOT= -0.9594396E-04 <-- DLTA
 ------------------------------------------------------------------------------
 Cycle:     41
  WF centre and spread    1  (  1.212319, -1.083306,  1.200894 )     3.94298067
  WF centre and spread    2  ( -1.627520,  1.198483,  1.793329 )     3.95478904
  WF centre and spread    3  ( -1.027974,  1.319984,  1.315380 )     3.97373435
  Sum of centres and spreads ( -1.443175,  1.435161,  4.309603 )    11.87150406
 
     41    -0.900E-04     0.0048904918       11.8715053289       0.16  <-- CONV
        O_D=      0.0231232 O_OD=      0.6826027 O_TOT=     11.8715053 <-- SPRD
 Delta: O_D=  0.7880888E-05 O_OD= -0.9788534E-04 O_TOT= -0.9000445E-04 <-- DLTA
 ------------------------------------------------------------------------------
 Cycle:     42
  WF centre and spread    1  (  1.212708, -1.083208,  1.200860 )     3.94308446
  WF centre and spread    2  ( -1.627849,  1.198721,  1.793549 )     3.95464731
  WF centre and spread    3  ( -1.028027,  1.319642,  1.315199 )     3.97367016
  Sum of centres and spreads ( -1.443168,  1.435154,  4.309608 )    11.87140193
 
     42    -0.102E-03     0.0051104902       11.8714032006       0.17  <-- CONV
        O_D=      0.0231563 O_OD=      0.6824674 O_TOT=     11.8714032 <-- SPRD
 Delta: O_D=  0.3315642E-04 O_OD= -0.1352848E-03 O_TOT= -0.1021284E-03 <-- DLTA
 ------------------------------------------------------------------------------
 Cycle:     43
  WF centre and spread    1  (  1.212747, -1.083195,  1.200852 )     3.94306421
  WF centre and spread    2  ( -1.627890,  1.198743,  1.793576 )     3.95459639
  WF centre and spread    3  ( -1.028030,  1.319599,  1.315174 )     3.97365018
  Sum of centres and spreads ( -1.443174,  1.435147,  4.309602 )    11.87131078
 
     43    -0.911E-04     0.0070643491       11.8713120514       0.17  <-- CONV
        O_D=      0.0231196 O_OD=      0.6824130 O_TOT=     11.8713121 <-- SPRD
 Delta: O_D= -0.3669781E-04 O_OD= -0.5445134E-04 O_TOT= -0.9114915E-04 <-- DLTA
 ------------------------------------------------------------------------------
 Cycle:     44
  WF centre and spread    1  (  1.212856, -1.083157,  1.200833 )     3.94306081
  WF centre and spread    2  ( -1.628003,  1.198808,  1.793650 )     3.95451574
  WF centre and spread    3  ( -1.028041,  1.319480,  1.315107 )     3.97365301
  Sum of centres and spreads ( -1.443188,  1.435131,  4.309589 )    11.87122957
 
     44    -0.812E-04     0.0048023465       11.8712308397       0.17  <-- CONV
        O_D=      0.0231054 O_OD=      0.6823460 O_TOT=     11.8712308 <-- SPRD
 Delta: O_D= -0.1425981E-04 O_OD= -0.6695195E-04 O_TOT= -0.8121177E-04 <-- DLTA
 ------------------------------------------------------------------------------
 Cycle:     45
  WF centre and spread    1  (  1.213063, -1.083092,  1.200807 )     3.94307773
  WF centre and spread    2  ( -1.628201,  1.198933,  1.793780 )     3.95439406
  WF centre and spread    3  ( -1.028064,  1.319272,  1.314990 )     3.97367049
  Sum of centres and spreads ( -1.443202,  1.435113,  4.309577 )    11.87114228
 
     45    -0.873E-04     0.0047268756       11.8711435577       0.17  <-- CONV
        O_D=      0.0230926 O_OD=      0.6822715 O_TOT=     11.8711436 <-- SPRD
 Delta: O_D= -0.1279410E-04 O_OD= -0.7448784E-04 O_TOT= -0.8728194E-04 <-- DLTA
 ------------------------------------------------------------------------------
 Cycle:     46
  WF centre and spread    1  (  1.213445, -1.082984,  1.200775 )     3.94313057
  WF centre and spread    2  ( -1.628538,  1.199168,  1.794005 )     3.95420199
  WF centre and spread    3  ( -1.028114,  1.318913,  1.314793 )     3.97369248
  Sum of centres and spreads ( -1.443207,  1.435097,  4.309572 )    11.87102503
 
     46    -0.117E-03     0.0052689685       11.8710263021       0.18  <-- CONV
        O_D=      0.0231006 O_OD=      0.6821463 O_TOT=     11.8710263 <-- SPRD
 Delta: O_D=  0.8014053E-05 O_OD= -0.1252696E-03 O_TOT= -0.1172556E-03 <-- DLTA
 ------------------------------------------------------------------------------
 Cycle:     47
  WF centre and spread    1  (  1.214046, -1.082825,  1.200741 )     3.94324662
  WF centre and spread    2  ( -1.629043,  1.199542,  1.794339 )     3.95393578
  WF centre and spread    3  ( -1.028203,  1.318370,  1.314499 )     3.97368817
  Sum of centres and spreads ( -1.443200,  1.435087,  4.309579 )    11.87087057
 
     47    -0.154E-03     0.0062597502       11.8708718416       0.18  <-- CONV
        O_D=      0.0231020 O_OD=      0.6819904 O_TOT=     11.8708718 <-- SPRD
 Delta: O_D=  0.1391776E-05 O_OD= -0.1558523E-03 O_TOT= -0.1544605E-03 <-- DLTA
 ------------------------------------------------------------------------------
 Cycle:     48
  WF centre and spread    1  (  1.214708, -1.082658,  1.200718 )     3.94341012
  WF centre and spread    2  ( -1.629588,  1.199959,  1.794693 )     3.95367919
  WF centre and spread    3  ( -1.028309,  1.317775,  1.314177 )     3.97363063
  Sum of centres and spreads ( -1.443189,  1.435076,  4.309587 )    11.87071994
 
     48    -0.151E-03     0.0067371580       11.8707212166       0.18  <-- CONV
        O_D=      0.0231333 O_OD=      0.6818085 O_TOT=     11.8707212 <-- SPRD
 Delta: O_D=  0.3127025E-04 O_OD= -0.1818953E-03 O_TOT= -0.1506250E-03 <-- DLTA
 ------------------------------------------------------------------------------
 Cycle:     49
  WF centre and spread    1  (  1.214749, -1.082649,  1.200720 )     3.94340173
  WF centre and spread    2  ( -1.629620,  1.199986,  1.794713 )     3.95363898
  WF centre and spread    3  ( -1.028319,  1.317735,  1.314151 )     3.97354734
  Sum of centres and spreads ( -1.443189,  1.435072,  4.309585 )    11.87058805
 
     49    -0.132E-03     0.0083130999       11.8705893201       0.18  <-- CONV
        O_D=      0.0230932 O_OD=      0.6817167 O_TOT=     11.8705893 <-- SPRD
 Delta: O_D= -0.4002438E-04 O_OD= -0.9187208E-04 O_TOT= -0.1318965E-03 <-- DLTA
 ------------------------------------------------------------------------------
 Cycle:     50
  WF centre and spread    1  (  1.214862, -1.082621,  1.200727 )     3.94344351
  WF centre and spread    2  ( -1.629707,  1.200059,  1.794771 )     3.95360275
  WF centre and spread    3  ( -1.028344,  1.317625,  1.314083 )     3.97341088
  Sum of centres and spreads ( -1.443189,  1.435064,  4.309581 )    11.87045713
 
     50    -0.131E-03     0.0062085432       11.8704584084       0.19  <-- CONV
        O_D=      0.0230827 O_OD=      0.6815963 O_TOT=     11.8704584 <-- SPRD
 Delta: O_D= -0.1058731E-04 O_OD= -0.1203244E-03 O_TOT= -0.1309117E-03 <-- DLTA
 ------------------------------------------------------------------------------
 Cycle:     51
  WF centre and spread    1  (  1.215015, -1.082581,  1.200738 )     3.94350813
  WF centre and spread    2  ( -1.629821,  1.200160,  1.794849 )     3.95356655
  WF centre and spread    3  ( -1.028376,  1.317482,  1.313996 )     3.97328028
  Sum of centres and spreads ( -1.443182,  1.435061,  4.309583 )    11.87035497
 
     51    -0.102E-03     0.0058668035       11.8703562418       0.19  <-- CONV
        O_D=      0.0230666 O_OD=      0.6815102 O_TOT=     11.8703562 <-- SPRD
 Delta: O_D= -0.1605832E-04 O_OD= -0.8610830E-04 O_TOT= -0.1021666E-03 <-- DLTA
 ------------------------------------------------------------------------------
 Cycle:     52
  WF centre and spread    1  (  1.215179, -1.082538,  1.200752 )     3.94356691
  WF centre and spread    2  ( -1.629941,  1.200268,  1.794933 )     3.95352553
  WF centre and spread    3  ( -1.028410,  1.317333,  1.313906 )     3.97319554
  Sum of centres and spreads ( -1.443171,  1.435064,  4.309591 )    11.87028798
 
     52    -0.670E-04     0.0047677555       11.8702892547       0.19  <-- CONV
        O_D=      0.0230721 O_OD=      0.6814378 O_TOT=     11.8702893 <-- SPRD
 Delta: O_D=  0.5479297E-05 O_OD= -0.7246644E-04 O_TOT= -0.6698714E-04 <-- DLTA
 ------------------------------------------------------------------------------
 Cycle:     53
  WF centre and spread    1  (  1.215400, -1.082477,  1.200768 )     3.94363342
  WF centre and spread    2  ( -1.630106,  1.200414,  1.795048 )     3.95346094
  WF centre and spread    3  ( -1.028453,  1.317128,  1.313784 )     3.97313382
  Sum of centres and spreads ( -1.443159,  1.435065,  4.309599 )    11.87022817
 
     53    -0.598E-04     0.0040426873       11.8702294472       0.19  <-- CONV
        O_D=      0.0230790 O_OD=      0.6813710 O_TOT=     11.8702294 <-- SPRD
 Delta: O_D=  0.6941198E-05 O_OD= -0.6674867E-04 O_TOT= -0.5980747E-04 <-- DLTA
 ------------------------------------------------------------------------------
 Cycle:     54
  WF centre and spread    1  (  1.215721, -1.082384,  1.200787 )     3.94372150
  WF centre and spread    2  ( -1.630358,  1.200626,  1.795220 )     3.95335720
  WF centre and spread    3  ( -1.028515,  1.316817,  1.313596 )     3.97308251
  Sum of centres and spreads ( -1.443152,  1.435059,  4.309603 )    11.87016121
 
     54    -0.670E-04     0.0041301097       11.8701624836       0.20  <-- CONV
        O_D=      0.0231003 O_OD=      0.6812828 O_TOT=     11.8701625 <-- SPRD
 Delta: O_D=  0.2127612E-04 O_OD= -0.8823972E-04 O_TOT= -0.6696360E-04 <-- DLTA
 ------------------------------------------------------------------------------
 Cycle:     55
  WF centre and spread    1  (  1.215753, -1.082371,  1.200786 )     3.94371040
  WF centre and spread    2  ( -1.630389,  1.200647,  1.795240 )     3.95332170
  WF centre and spread    3  ( -1.028521,  1.316778,  1.313572 )     3.97306811
  Sum of centres and spreads ( -1.443157,  1.435054,  4.309598 )    11.87010020
 
     55    -0.610E-04     0.0058108919       11.8701014771       0.20  <-- CONV
        O_D=      0.0230759 O_OD=      0.6812461 O_TOT=     11.8701015 <-- SPRD
 Delta: O_D= -0.2436433E-04 O_OD= -0.3664220E-04 O_TOT= -0.6100653E-04 <-- DLTA
 ------------------------------------------------------------------------------
 Cycle:     56
  WF centre and spread    1  (  1.215847, -1.082336,  1.200787 )     3.94371491
  WF centre and spread    2  ( -1.630478,  1.200708,  1.795299 )     3.95326315
  WF centre and spread    3  ( -1.028536,  1.316670,  1.313503 )     3.97306761
  Sum of centres and spreads ( -1.443167,  1.435041,  4.309588 )    11.87004567
 
     56    -0.545E-04     0.0039257666       11.8700469421       0.20  <-- CONV
        O_D=      0.0230656 O_OD=      0.6812019 O_TOT=     11.8700469 <-- SPRD
 Delta: O_D= -0.1030040E-04 O_OD= -0.4423457E-04 O_TOT= -0.5453497E-04 <-- DLTA
 ------------------------------------------------------------------------------
 Cycle:     57
  WF centre and spread    1  (  1.216029, -1.082273,  1.200794 )     3.94373849
  WF centre and spread    2  ( -1.630637,  1.200828,  1.795406 )     3.95317050
  WF centre and spread    3  ( -1.028569,  1.316471,  1.313379 )     3.97307579
  Sum of centres and spreads ( -1.443177,  1.435026,  4.309578 )    11.86998478
 
     57    -0.609E-04     0.0039060441       11.8699860567       0.20  <-- CONV
        O_D=      0.0230536 O_OD=      0.6811531 O_TOT=     11.8699861 <-- SPRD
 Delta: O_D= -0.1206291E-04 O_OD= -0.4882252E-04 O_TOT= -0.6088544E-04 <-- DLTA
 ------------------------------------------------------------------------------
 Cycle:     58
  WF centre and spread    1  (  1.216363, -1.082166,  1.200818 )     3.94379561
  WF centre and spread    2  ( -1.630909,  1.201051,  1.795590 )     3.95302340
  WF centre and spread    3  ( -1.028634,  1.316127,  1.313166 )     3.97308322
  Sum of centres and spreads ( -1.443179,  1.435012,  4.309575 )    11.86990223
 
     58    -0.826E-04     0.0044161451       11.8699035041       0.21  <-- CONV
        O_D=      0.0230588 O_OD=      0.6810653 O_TOT=     11.8699035 <-- SPRD
 Delta: O_D=  0.5240692E-05 O_OD= -0.8779328E-04 O_TOT= -0.8255259E-04 <-- DLTA
 ------------------------------------------------------------------------------
 Cycle:     59
  WF centre and spread    1  (  1.216865, -1.082013,  1.200866 )     3.94390503
  WF centre and spread    2  ( -1.631298,  1.201390,  1.795855 )     3.95282919
  WF centre and spread    3  ( -1.028737,  1.315626,  1.312858 )     3.97306387
  Sum of centres and spreads ( -1.443171,  1.435003,  4.309580 )    11.86979809
 
     59    -0.104E-03     0.0051919290       11.8697993633       0.21  <-- CONV
        O_D=      0.0230618 O_OD=      0.6809581 O_TOT=     11.8697994 <-- SPRD
 Delta: O_D=  0.3017281E-05 O_OD= -0.1071580E-03 O_TOT= -0.1041408E-03 <-- DLTA
 ------------------------------------------------------------------------------
 Cycle:     60
  WF centre and spread    1  (  1.217413, -1.081850,  1.200927 )     3.94405275
  WF centre and spread    2  ( -1.631716,  1.201763,  1.796136 )     3.95264545
  WF centre and spread    3  ( -1.028856,  1.315080,  1.312522 )     3.97299943
  Sum of centres and spreads ( -1.443159,  1.434993,  4.309585 )    11.86969763
 
     60    -0.100E-03     0.0054894158       11.8696989087       0.21  <-- CONV
        O_D=      0.0230839 O_OD=      0.6808356 O_TOT=     11.8696989 <-- SPRD
 Delta: O_D=  0.2203359E-04 O_OD= -0.1224882E-03 O_TOT= -0.1004546E-03 <-- DLTA
 ------------------------------------------------------------------------------
 Cycle:     61
  WF centre and spread    1  (  1.217446, -1.081839,  1.200934 )     3.94405143
  WF centre and spread    2  ( -1.631741,  1.201786,  1.796153 )     3.95261872
  WF centre and spread    3  ( -1.028865,  1.315042,  1.312496 )     3.97293763
  Sum of centres and spreads ( -1.443160,  1.434990,  4.309583 )    11.86960778
 
     61    -0.899E-04     0.0069097177       11.8696090543       0.21  <-- CONV
        O_D=      0.0230562 O_OD=      0.6807735 O_TOT=     11.8696091 <-- SPRD
 Delta: O_D= -0.2769216E-04 O_OD= -0.6216218E-04 O_TOT= -0.8985434E-04 <-- DLTA
 ------------------------------------------------------------------------------
 Cycle:     62
  WF centre and spread    1  (  1.217541, -1.081809,  1.200953 )     3.94409194
  WF centre and spread    2  ( -1.631811,  1.201853,  1.796202 )     3.95259542
  WF centre and spread    3  ( -1.028890,  1.314938,  1.312424 )     3.97283075
  Sum of centres and spreads ( -1.443160,  1.434982,  4.309578 )    11.86951812
 
     62    -0.897E-04     0.0051270400       11.8695193907       0.22  <-- CONV
        O_D=      0.0230487 O_OD=      0.6806913 O_TOT=     11.8695194 <-- SPRD
 Delta: O_D= -0.7460034E-05 O_OD= -0.8220355E-04 O_TOT= -0.8966359E-04 <-- DLTA
 ------------------------------------------------------------------------------
 Cycle:     63
  WF centre and spread    1  (  1.217672, -1.081767,  1.200981 )     3.94415100
  WF centre and spread    2  ( -1.631903,  1.201946,  1.796269 )     3.95257082
  WF centre and spread    3  ( -1.028925,  1.314799,  1.312329 )     3.97272467
  Sum of centres and spreads ( -1.443155,  1.434978,  4.309579 )    11.86944648
 
     63    -0.716E-04     0.0048707401       11.8694477591       0.22  <-- CONV
        O_D=      0.0230374 O_OD=      0.6806310 O_TOT=     11.8694478 <-- SPRD
 Delta: O_D= -0.1135325E-04 O_OD= -0.6027841E-04 O_TOT= -0.7163166E-04 <-- DLTA
 ------------------------------------------------------------------------------
 Cycle:     64
  WF centre and spread    1  (  1.217814, -1.081722,  1.201013 )     3.94420389
  WF centre and spread    2  ( -1.631999,  1.202047,  1.796339 )     3.95254075
  WF centre and spread    3  ( -1.028961,  1.314654,  1.312232 )     3.97265424
  Sum of centres and spreads ( -1.443146,  1.434979,  4.309584 )    11.86939888
 
     64    -0.476E-04     0.0040038010       11.8694001575       0.22  <-- CONV
        O_D=      0.0230431 O_OD=      0.6805776 O_TOT=     11.8694002 <-- SPRD
 Delta: O_D=  0.5777144E-05 O_OD= -0.5337873E-04 O_TOT= -0.4760159E-04 <-- DLTA
 ------------------------------------------------------------------------------
 Cycle:     65
  WF centre and spread    1  (  1.218000, -1.081661,  1.201054 )     3.94426189
  WF centre and spread    2  ( -1.632127,  1.202179,  1.796433 )     3.95249289
  WF centre and spread    3  ( -1.029008,  1.314461,  1.312104 )     3.97260264
  Sum of centres and spreads ( -1.443136,  1.434980,  4.309591 )    11.86935743
 
     65    -0.415E-04     0.0033904748       11.8693587006       0.22  <-- CONV
        O_D=      0.0230492 O_OD=      0.6805300 O_TOT=     11.8693587 <-- SPRD
 Delta: O_D=  0.6112799E-05 O_OD= -0.4756968E-04 O_TOT= -0.4145689E-04 <-- DLTA
 ------------------------------------------------------------------------------
 Cycle:     66
  WF centre and spread    1  (  1.218267, -1.081570,  1.201110 )     3.94433894
  WF centre and spread    2  ( -1.632321,  1.202371,  1.796572 )     3.95241593
  WF centre and spread    3  ( -1.029075,  1.314173,  1.311911 )     3.97255673
  Sum of centres and spreads ( -1.443129,  1.434974,  4.309593 )    11.86931160
 
     66    -0.458E-04     0.0034192498       11.8693128802       0.22  <-- CONV
        O_D=      0.0230638 O_OD=      0.6804697 O_TOT=     11.8693129 <-- SPRD
 Delta: O_D=  0.1452159E-04 O_OD= -0.6034200E-04 O_TOT= -0.4582042E-04 <-- DLTA
 ------------------------------------------------------------------------------
 Cycle:     67
  WF centre and spread    1  (  1.218295, -1.081558,  1.201114 )     3.94433323
  WF centre and spread    2  ( -1.632346,  1.202390,  1.796589 )     3.95239058
  WF centre and spread    3  ( -1.029081,  1.314137,  1.311886 )     3.97254543
  Sum of centres and spreads ( -1.443132,  1.434970,  4.309589 )    11.86926924
 
     67    -0.424E-04     0.0048605835       11.8692705141       0.23  <-- CONV
        O_D=      0.0230466 O_OD=      0.6804445 O_TOT=     11.8692705 <-- SPRD
 Delta: O_D= -0.1715506E-04 O_OD= -0.2521102E-04 O_TOT= -0.4236607E-04 <-- DLTA
 ------------------------------------------------------------------------------
 Cycle:     68
  WF centre and spread    1  (  1.218375, -1.081524,  1.201128 )     3.94434176
  WF centre and spread    2  ( -1.632415,  1.202447,  1.796637 )     3.95234745
  WF centre and spread    3  ( -1.029100,  1.314036,  1.311816 )     3.97254185
  Sum of centres and spreads ( -1.443140,  1.434959,  4.309581 )    11.86923106
 
     68    -0.382E-04     0.0032789671       11.8692323363       0.23  <-- CONV
        O_D=      0.0230386 O_OD=      0.6804144 O_TOT=     11.8692323 <-- SPRD
 Delta: O_D= -0.8053168E-05 O_OD= -0.3012467E-04 O_TOT= -0.3817784E-04 <-- DLTA
 ------------------------------------------------------------------------------
 Cycle:     69
  WF centre and spread    1  (  1.218533, -1.081462,  1.201160 )     3.94436791
  WF centre and spread    2  ( -1.632541,  1.202561,  1.796726 )     3.95227737
  WF centre and spread    3  ( -1.029139,  1.313847,  1.311687 )     3.97254231
  Sum of centres and spreads ( -1.443147,  1.434947,  4.309573 )    11.86918759
 
     69    -0.435E-04     0.0032812317       11.8691888632       0.23  <-- CONV
        O_D=      0.0230281 O_OD=      0.6803814 O_TOT=     11.8691889 <-- SPRD
 Delta: O_D= -0.1047884E-04 O_OD= -0.3299418E-04 O_TOT= -0.4347302E-04 <-- DLTA
 ------------------------------------------------------------------------------
 Cycle:     70
  WF centre and spread    1  (  1.218823, -1.081353,  1.201227 )     3.94442486
  WF centre and spread    2  ( -1.632757,  1.202772,  1.796881 )     3.95216553
  WF centre and spread    3  ( -1.029213,  1.313517,  1.311462 )     3.97253782
  Sum of centres and spreads ( -1.443147,  1.434935,  4.309570 )    11.86912821
 
     70    -0.594E-04     0.0037332498       11.8691294857       0.23  <-- CONV
        O_D=      0.0230316 O_OD=      0.6803185 O_TOT=     11.8691295 <-- SPRD
 Delta: O_D=  0.3527315E-05 O_OD= -0.6290483E-04 O_TOT= -0.5937752E-04 <-- DLTA
 ------------------------------------------------------------------------------
 Cycle:     71
  WF centre and spread    1  (  1.219248, -1.081201,  1.201333 )     3.94452592
  WF centre and spread    2  ( -1.633060,  1.203082,  1.797099 )     3.95202207
  WF centre and spread    3  ( -1.029326,  1.313045,  1.311140 )     3.97250698
  Sum of centres and spreads ( -1.443138,  1.434927,  4.309573 )    11.86905497
 
     71    -0.732E-04     0.0043729923       11.8690562465       0.24  <-- CONV
        O_D=      0.0230349 O_OD=      0.6802420 O_TOT=     11.8690562 <-- SPRD
 Delta: O_D=  0.3264651E-05 O_OD= -0.7650387E-04 O_TOT= -0.7323922E-04 <-- DLTA
 ------------------------------------------------------------------------------
 Cycle:     72
  WF centre and spread    1  (  1.219708, -1.081038,  1.201455 )     3.94465828
  WF centre and spread    2  ( -1.633383,  1.203421,  1.797331 )     3.95188889
  WF centre and spread    3  ( -1.029452,  1.312534,  1.310791 )     3.97243776
  Sum of centres and spreads ( -1.443126,  1.434917,  4.309576 )    11.86898493
 
     72    -0.700E-04     0.0045816379       11.8689862072       0.24  <-- CONV
        O_D=      0.0230512 O_OD=      0.6801556 O_TOT=     11.8689862 <-- SPRD
 Delta: O_D=  0.1629430E-04 O_OD= -0.8633358E-04 O_TOT= -0.7003928E-04 <-- DLTA
 ------------------------------------------------------------------------------
 Cycle:     73
  WF centre and spread    1  (  1.219736, -1.081026,  1.201464 )     3.94466075
  WF centre and spread    2  ( -1.633402,  1.203442,  1.797346 )     3.95187071
  WF centre and spread    3  ( -1.029461,  1.312498,  1.310764 )     3.97238977
  Sum of centres and spreads ( -1.443127,  1.434914,  4.309574 )    11.86892124
 
     73    -0.637E-04     0.0058503645       11.8689225121       0.24  <-- CONV
        O_D=      0.0230311 O_OD=      0.6801120 O_TOT=     11.8689225 <-- SPRD
 Delta: O_D= -0.2009983E-04 O_OD= -0.4359536E-04 O_TOT= -0.6369519E-04 <-- DLTA
 ------------------------------------------------------------------------------
 Cycle:     74
  WF centre and spread    1  (  1.219815, -1.080995,  1.201492 )     3.94469883
  WF centre and spread    2  ( -1.633458,  1.203503,  1.797388 )     3.95185595
  WF centre and spread    3  ( -1.029486,  1.312398,  1.310689 )     3.97230233
  Sum of centres and spreads ( -1.443128,  1.434907,  4.309569 )    11.86885711
 
     74    -0.641E-04     0.0043254766       11.8688583860       0.24  <-- CONV
        O_D=      0.0230255 O_OD=      0.6800535 O_TOT=     11.8688584 <-- SPRD
 Delta: O_D= -0.5581994E-05 O_OD= -0.5854402E-04 O_TOT= -0.6412601E-04 <-- DLTA
 ------------------------------------------------------------------------------
 Cycle:     75
  WF centre and spread    1  (  1.219928, -1.080950,  1.201532 )     3.94475212
  WF centre and spread    2  ( -1.633531,  1.203589,  1.797446 )     3.95183975
  WF centre and spread    3  ( -1.029521,  1.312264,  1.310590 )     3.97221333
  Sum of centres and spreads ( -1.443125,  1.434902,  4.309568 )    11.86880520
 
     75    -0.519E-04     0.0041232198       11.8688064713       0.24  <-- CONV
        O_D=      0.0230174 O_OD=      0.6800096 O_TOT=     11.8688065 <-- SPRD
 Delta: O_D= -0.8056333E-05 O_OD= -0.4385841E-04 O_TOT= -0.5191474E-04 <-- DLTA
 ------------------------------------------------------------------------------
 Cycle:     76
  WF centre and spread    1  (  1.220050, -1.080904,  1.201578 )     3.94479936
  WF centre and spread    2  ( -1.633607,  1.203683,  1.797507 )     3.95181818
  WF centre and spread    3  ( -1.029560,  1.312123,  1.310487 )     3.97215283
  Sum of centres and spreads ( -1.443116,  1.434903,  4.309572 )    11.86877037
 
     76    -0.348E-04     0.0034108447       11.8687716421       0.25  <-- CONV
        O_D=      0.0230230 O_OD=      0.6799693 O_TOT=     11.8687716 <-- SPRD
 Delta: O_D=  0.5533230E-05 O_OD= -0.4036247E-04 O_TOT= -0.3482924E-04 <-- DLTA
 ------------------------------------------------------------------------------
 Cycle:     77
  WF centre and spread    1  (  1.220209, -1.080842,  1.201637 )     3.94485035
  WF centre and spread    2  ( -1.633707,  1.203806,  1.797587 )     3.95178289
  WF centre and spread    3  ( -1.029609,  1.311939,  1.310353 )     3.97210711
  Sum of centres and spreads ( -1.443107,  1.434903,  4.309577 )    11.86874035
 
     77    -0.300E-04     0.0028950056       11.8687416272       0.25  <-- CONV
        O_D=      0.0230283 O_OD=      0.6799339 O_TOT=     11.8687416 <-- SPRD
 Delta: O_D=  0.5329745E-05 O_OD= -0.3534457E-04 O_TOT= -0.3001482E-04 <-- DLTA
 ------------------------------------------------------------------------------
 Cycle:     78
  WF centre and spread    1  (  1.220435, -1.080751,  1.201720 )     3.94491817
  WF centre and spread    2  ( -1.633857,  1.203981,  1.797703 )     3.95172603
  WF centre and spread    3  ( -1.029679,  1.311668,  1.310155 )     3.97206331
  Sum of centres and spreads ( -1.443100,  1.434898,  4.309578 )    11.86870751
 
     78    -0.328E-04     0.0029010940       11.8687087846       0.25  <-- CONV
        O_D=      0.0230389 O_OD=      0.6798905 O_TOT=     11.8687088 <-- SPRD
 Delta: O_D=  0.1058951E-04 O_OD= -0.4343215E-04 O_TOT= -0.3284264E-04 <-- DLTA
 ------------------------------------------------------------------------------
 Cycle:     79
  WF centre and spread    1  (  1.220458, -1.080740,  1.201728 )     3.94491557
  WF centre and spread    2  ( -1.633876,  1.203999,  1.797717 )     3.95170752
  WF centre and spread    3  ( -1.029686,  1.311634,  1.310130 )     3.97205369
  Sum of centres and spreads ( -1.443103,  1.434894,  4.309575 )    11.86867679
 
     79    -0.307E-04     0.0041493134       11.8686780630       0.25  <-- CONV
        O_D=      0.0230261 O_OD=      0.6798725 O_TOT=     11.8686781 <-- SPRD
 Delta: O_D= -0.1276237E-04 O_OD= -0.1795921E-04 O_TOT= -0.3072158E-04 <-- DLTA
 ------------------------------------------------------------------------------
 Cycle:     80
  WF centre and spread    1  (  1.220527, -1.080706,  1.201752 )     3.94492592
  WF centre and spread    2  ( -1.633930,  1.204052,  1.797758 )     3.95167551
  WF centre and spread    3  ( -1.029707,  1.311539,  1.310059 )     3.97204744
  Sum of centres and spreads ( -1.443109,  1.434885,  4.309568 )    11.86864887
 
     80    -0.279E-04     0.0028010516       11.8686501414       0.26  <-- CONV
        O_D=      0.0230195 O_OD=      0.6798513 O_TOT=     11.8686501 <-- SPRD
 Delta: O_D= -0.6648486E-05 O_OD= -0.2127318E-04 O_TOT= -0.2792167E-04 <-- DLTA
 ------------------------------------------------------------------------------
 Cycle:     81
  WF centre and spread    1  (  1.220664, -1.080644,  1.201802 )     3.94495225
  WF centre and spread    2  ( -1.634029,  1.204159,  1.797834 )     3.95162275
  WF centre and spread    3  ( -1.029749,  1.311359,  1.309925 )     3.97204176
  Sum of centres and spreads ( -1.443114,  1.434874,  4.309561 )    11.86861675
 
     81    -0.321E-04     0.0028097112       11.8686180260       0.26  <-- CONV
        O_D=      0.0230106 O_OD=      0.6798280 O_TOT=     11.8686180 <-- SPRD
 Delta: O_D= -0.8873172E-05 O_OD= -0.2324222E-04 O_TOT= -0.3211539E-04 <-- DLTA
 ------------------------------------------------------------------------------
 Cycle:     82
  WF centre and spread    1  (  1.220916, -1.080535,  1.201901 )     3.94500647
  WF centre and spread    2  ( -1.634199,  1.204358,  1.797967 )     3.95153824
  WF centre and spread    3  ( -1.029830,  1.311041,  1.309690 )     3.97202788
  Sum of centres and spreads ( -1.443113,  1.434864,  4.309558 )    11.86857260
 
     82    -0.442E-04     0.0032078551       11.8685738731       0.26  <-- CONV
        O_D=      0.0230131 O_OD=      0.6797814 O_TOT=     11.8685739 <-- SPRD
 Delta: O_D=  0.2474999E-05 O_OD= -0.4662788E-04 O_TOT= -0.4415288E-04 <-- DLTA
 ------------------------------------------------------------------------------
 Cycle:     83
  WF centre and spread    1  (  1.221279, -1.080381,  1.202050 )     3.94509850
  WF centre and spread    2  ( -1.634434,  1.204646,  1.798153 )     3.95143194
  WF centre and spread    3  ( -1.029948,  1.310591,  1.309358 )     3.97198829
  Sum of centres and spreads ( -1.443103,  1.434856,  4.309561 )    11.86851872
 
     83    -0.539E-04     0.0037558934       11.8685200002       0.26  <-- CONV
        O_D=      0.0230161 O_OD=      0.6797245 O_TOT=     11.8685200 <-- SPRD
 Delta: O_D=  0.2983029E-05 O_OD= -0.5685586E-04 O_TOT= -0.5387283E-04 <-- DLTA
 ------------------------------------------------------------------------------
 Cycle:     84
  WF centre and spread    1  (  1.221671, -1.080216,  1.202214 )     3.94521669
  WF centre and spread    2  ( -1.634684,  1.204959,  1.798351 )     3.95133517
  WF centre and spread    3  ( -1.030079,  1.310105,  1.308997 )     3.97191561
  Sum of centres and spreads ( -1.443092,  1.434847,  4.309562 )    11.86846747
 
     84    -0.513E-04     0.0039195216       11.8684687455       0.26  <-- CONV
        O_D=      0.0230287 O_OD=      0.6796606 O_TOT=     11.8684687 <-- SPRD
 Delta: O_D=  0.1266394E-04 O_OD= -0.6391869E-04 O_TOT= -0.5125475E-04 <-- DLTA
 ------------------------------------------------------------------------------
 Cycle:     85
  WF centre and spread    1  (  1.221694, -1.080205,  1.202226 )     3.94522103
  WF centre and spread    2  ( -1.634700,  1.204978,  1.798364 )     3.95132249
  WF centre and spread    3  ( -1.030087,  1.310071,  1.308970 )     3.97187669
  Sum of centres and spreads ( -1.443093,  1.434844,  4.309560 )    11.86842022
 
     85    -0.473E-04     0.0050628825       11.8684214950       0.27  <-- CONV
        O_D=      0.0230134 O_OD=      0.6796287 O_TOT=     11.8684215 <-- SPRD
 Delta: O_D= -0.1531233E-04 O_OD= -0.3193821E-04 O_TOT= -0.4725054E-04 <-- DLTA
 ------------------------------------------------------------------------------
 Cycle:     86
  WF centre and spread    1  (  1.221762, -1.080172,  1.202260 )     3.94525628
  WF centre and spread    2  ( -1.634743,  1.205034,  1.798402 )     3.95131356
  WF centre and spread    3  ( -1.030112,  1.309975,  1.308893 )     3.97180236
  Sum of centres and spreads ( -1.443094,  1.434837,  4.309555 )    11.86837220
 
     86    -0.480E-04     0.0037336573       11.8683734805       0.27  <-- CONV
        O_D=      0.0230090 O_OD=      0.6795850 O_TOT=     11.8683735 <-- SPRD
 Delta: O_D= -0.4390558E-05 O_OD= -0.4362386E-04 O_TOT= -0.4801442E-04 <-- DLTA
 ------------------------------------------------------------------------------
 Cycle:     87
  WF centre and spread    1  (  1.221858, -1.080126,  1.202310 )     3.94530424
  WF centre and spread    2  ( -1.634801,  1.205114,  1.798453 )     3.95130356
  WF centre and spread    3  ( -1.030148,  1.309845,  1.308790 )     3.97172519
  Sum of centres and spreads ( -1.443091,  1.434833,  4.309554 )    11.86833299
 
     87    -0.392E-04     0.0035681846       11.8683342642       0.27  <-- CONV
        O_D=      0.0230032 O_OD=      0.6795517 O_TOT=     11.8683343 <-- SPRD
 Delta: O_D= -0.5854753E-05 O_OD= -0.3336157E-04 O_TOT= -0.3921632E-04 <-- DLTA
 ------------------------------------------------------------------------------
 Cycle:     88
  WF centre and spread    1  (  1.221964, -1.080078,  1.202366 )     3.94534638
  WF centre and spread    2  ( -1.634860,  1.205202,  1.798508 )     3.95128863
  WF centre and spread    3  ( -1.030188,  1.309708,  1.308682 )     3.97167149
  Sum of centres and spreads ( -1.443084,  1.434832,  4.309556 )    11.86830650
 
     88    -0.265E-04     0.0029638425       11.8683077736       0.27  <-- CONV
        O_D=      0.0230083 O_OD=      0.6795201 O_TOT=     11.8683078 <-- SPRD
 Delta: O_D=  0.5127318E-05 O_OD= -0.3161789E-04 O_TOT= -0.2649057E-04 <-- DLTA
 ------------------------------------------------------------------------------
 Cycle:     89
  WF centre and spread    1  (  1.222101, -1.080016,  1.202439 )     3.94539153
  WF centre and spread    2  ( -1.634937,  1.205317,  1.798577 )     3.95126298
  WF centre and spread    3  ( -1.030239,  1.309531,  1.308544 )     3.97162923
  Sum of centres and spreads ( -1.443075,  1.434832,  4.309560 )    11.86828374
 
     89    -0.228E-04     0.0025243064       11.8682850137       0.27  <-- CONV
        O_D=      0.0230130 O_OD=      0.6794926 O_TOT=     11.8682850 <-- SPRD
 Delta: O_D=  0.4679317E-05 O_OD= -0.2743927E-04 O_TOT= -0.2275995E-04 <-- DLTA
 ------------------------------------------------------------------------------
 Cycle:     90
  WF centre and spread    1  (  1.222295, -1.079924,  1.202541 )     3.94545167
  WF centre and spread    2  ( -1.635052,  1.205480,  1.798678 )     3.95122141
  WF centre and spread    3  ( -1.030311,  1.309272,  1.308341 )     3.97158591
  Sum of centres and spreads ( -1.443069,  1.434827,  4.309561 )    11.86825899
 
     90    -0.247E-04     0.0025233239       11.8682602655       0.28  <-- CONV
        O_D=      0.0230212 O_OD=      0.6794597 O_TOT=     11.8682603 <-- SPRD
 Delta: O_D=  0.8207513E-05 O_OD= -0.3295575E-04 O_TOT= -0.2474824E-04 <-- DLTA
 ------------------------------------------------------------------------------
 Cycle:     91
  WF centre and spread    1  (  1.222315, -1.079913,  1.202551 )     3.94545085
  WF centre and spread    2  ( -1.635067,  1.205496,  1.798690 )     3.95120757
  WF centre and spread    3  ( -1.030318,  1.309240,  1.308316 )     3.97157720
  Sum of centres and spreads ( -1.443071,  1.434824,  4.309558 )    11.86823562
 
     91    -0.234E-04     0.0036254422       11.8682368962       0.28  <-- CONV
        O_D=      0.0230112 O_OD=      0.6794463 O_TOT=     11.8682369 <-- SPRD
 Delta: O_D= -0.9999539E-05 O_OD= -0.1336976E-04 O_TOT= -0.2336930E-04 <-- DLTA
 ------------------------------------------------------------------------------
 Cycle:     92
  WF centre and spread    1  (  1.222374, -1.079880,  1.202582 )     3.94546178
  WF centre and spread    2  ( -1.635109,  1.205547,  1.798725 )     3.95118370
  WF centre and spread    3  ( -1.030340,  1.309150,  1.308244 )     3.97156875
  Sum of centres and spreads ( -1.443076,  1.434816,  4.309552 )    11.86821423
 
     92    -0.214E-04     0.0024497585       11.8682155051       0.28  <-- CONV
        O_D=      0.0230055 O_OD=      0.6794306 O_TOT=     11.8682155 <-- SPRD
 Delta: O_D= -0.5695372E-05 O_OD= -0.1569565E-04 O_TOT= -0.2139102E-04 <-- DLTA
 ------------------------------------------------------------------------------
 Cycle:     93
  WF centre and spread    1  (  1.222492, -1.079818,  1.202646 )     3.94548708
  WF centre and spread    2  ( -1.635186,  1.205648,  1.798792 )     3.95114416
  WF centre and spread    3  ( -1.030385,  1.308977,  1.308108 )     3.97155825
  Sum of centres and spreads ( -1.443079,  1.434807,  4.309546 )    11.86818949
 
     93    -0.247E-04     0.0024613680       11.8681907703       0.28  <-- CONV
        O_D=      0.0229979 O_OD=      0.6794135 O_TOT=     11.8681908 <-- SPRD
 Delta: O_D= -0.7578785E-05 O_OD= -0.1715603E-04 O_TOT= -0.2473482E-04 <-- DLTA
 ------------------------------------------------------------------------------
 Cycle:     94
  WF centre and spread    1  (  1.222711, -1.079707,  1.202768 )     3.94553748
  WF centre and spread    2  ( -1.635318,  1.205835,  1.798909 )     3.95108075
  WF centre and spread    3  ( -1.030469,  1.308670,  1.307865 )     3.97153704
  Sum of centres and spreads ( -1.443076,  1.434798,  4.309543 )    11.86815527
 
     94    -0.342E-04     0.0028134943       11.8681565422       0.28  <-- CONV
        O_D=      0.0229998 O_OD=      0.6793774 O_TOT=     11.8681565 <-- SPRD
 Delta: O_D=  0.1850449E-05 O_OD= -0.3607854E-04 O_TOT= -0.3422809E-04 <-- DLTA
 ------------------------------------------------------------------------------
 Cycle:     95
  WF centre and spread    1  (  1.223025, -1.079552,  1.202948 )     3.94562073
  WF centre and spread    2  ( -1.635500,  1.206106,  1.799073 )     3.95100231
  WF centre and spread    3  ( -1.030592,  1.308237,  1.307523 )     3.97149067
  Sum of centres and spreads ( -1.443067,  1.434791,  4.309544 )    11.86811371
 
     95    -0.416E-04     0.0032991954       11.8681149884       0.29  <-- CONV
        O_D=      0.0230024 O_OD=      0.6793332 O_TOT=     11.8681150 <-- SPRD
 Delta: O_D=  0.2633860E-05 O_OD= -0.4418772E-04 O_TOT= -0.4155386E-04 <-- DLTA
 ------------------------------------------------------------------------------
 Cycle:     96
  WF centre and spread    1  (  1.223362, -1.079385,  1.203145 )     3.94572650
  WF centre and spread    2  ( -1.635693,  1.206397,  1.799247 )     3.95093256
  WF centre and spread    3  ( -1.030725,  1.307770,  1.307152 )     3.97141519
  Sum of centres and spreads ( -1.443056,  1.434782,  4.309544 )    11.86807425
 
     96    -0.395E-04     0.0034387577       11.8680755282       0.29  <-- CONV
        O_D=      0.0230127 O_OD=      0.6792834 O_TOT=     11.8680755 <-- SPRD
 Delta: O_D=  0.1033512E-04 O_OD= -0.4979531E-04 O_TOT= -0.3946018E-04 <-- DLTA
 ------------------------------------------------------------------------------
 Cycle:     97
  WF centre and spread    1  (  1.223382, -1.079374,  1.203158 )     3.94573161
  WF centre and spread    2  ( -1.635705,  1.206415,  1.799259 )     3.95092348
  WF centre and spread    3  ( -1.030734,  1.307737,  1.307125 )     3.97138235
  Sum of centres and spreads ( -1.443057,  1.434779,  4.309542 )    11.86803744
 
[...]
  Sum of centres and spreads ( -1.442026,  1.433777,  4.308849 )    11.86446752
 
    473    -0.179E-05     0.0007113166       11.8644687972       1.36  <-- CONV
        O_D=      0.0228966 O_OD=      0.6757928 O_TOT=     11.8644688 <-- SPRD
 Delta: O_D=  0.7071786E-06 O_OD= -0.2497063E-05 O_TOT= -0.1789884E-05 <-- DLTA
 ------------------------------------------------------------------------------
 Cycle:    474
  WF centre and spread    1  (  1.240579, -1.062008,  1.233887 )     3.95239640
  WF centre and spread    2  ( -1.633720,  1.234489,  1.813479 )     3.95262251
  WF centre and spread    3  ( -1.048882,  1.261296,  1.261481 )     3.95944673
  Sum of centres and spreads ( -1.442024,  1.433776,  4.308848 )    11.86446564
 
    474    -0.188E-05     0.0007046296       11.8644669178       1.36  <-- CONV
        O_D=      0.0228973 O_OD=      0.6757902 O_TOT=     11.8644669 <-- SPRD
 Delta: O_D=  0.7546690E-06 O_OD= -0.2633993E-05 O_TOT= -0.1879324E-05 <-- DLTA
 ------------------------------------------------------------------------------
 Cycle:    475
  WF centre and spread    1  (  1.240581, -1.062005,  1.233894 )     3.95239720
  WF centre and spread    2  ( -1.633718,  1.234495,  1.813482 )     3.95262283
  WF centre and spread    3  ( -1.048887,  1.261286,  1.261471 )     3.95944375
  Sum of centres and spreads ( -1.442024,  1.433776,  4.308847 )    11.86446378
 
    475    -0.186E-05     0.0010319249       11.8644650535       1.36  <-- CONV
        O_D=      0.0228963 O_OD=      0.6757893 O_TOT=     11.8644651 <-- SPRD
 Delta: O_D= -0.1034715E-05 O_OD= -0.8296843E-06 O_TOT= -0.1864399E-05 <-- DLTA
 ------------------------------------------------------------------------------
 Cycle:    476
  WF centre and spread    1  (  1.240589, -1.061995,  1.233914 )     3.95240058
  WF centre and spread    2  ( -1.633712,  1.234514,  1.813491 )     3.95262528
  WF centre and spread    3  ( -1.048901,  1.261256,  1.261441 )     3.95943616
  Sum of centres and spreads ( -1.442024,  1.433774,  4.308846 )    11.86446202
 
    476    -0.176E-05     0.0006992487       11.8644632944       1.37  <-- CONV
        O_D=      0.0228954 O_OD=      0.6757885 O_TOT=     11.8644633 <-- SPRD
 Delta: O_D= -0.8876843E-06 O_OD= -0.8713931E-06 O_TOT= -0.1759077E-05 <-- DLTA
 ------------------------------------------------------------------------------
 Cycle:    477
  WF centre and spread    1  (  1.240606, -1.061976,  1.233955 )     3.95240748
  WF centre and spread    2  ( -1.633700,  1.234552,  1.813508 )     3.95263112
  WF centre and spread    3  ( -1.048929,  1.261196,  1.261380 )     3.95942133
  Sum of centres and spreads ( -1.442023,  1.433773,  4.308844 )    11.86445992
 
    477    -0.209E-05     0.0007040805       11.8644612006       1.37  <-- CONV
        O_D=      0.0228945 O_OD=      0.6757873 O_TOT=     11.8644612 <-- SPRD
 Delta: O_D= -0.9539351E-06 O_OD= -0.1139855E-05 O_TOT= -0.2093790E-05 <-- DLTA
 ------------------------------------------------------------------------------
 Cycle:    478
  WF centre and spread    1  (  1.240638, -1.061938,  1.234037 )     3.95242122
  WF centre and spread    2  ( -1.633675,  1.234627,  1.813542 )     3.95264361
  WF centre and spread    3  ( -1.048984,  1.261082,  1.261264 )     3.95939193
  Sum of centres and spreads ( -1.442020,  1.433771,  4.308843 )    11.86445676
 
    478    -0.317E-05     0.0008394632       11.8644580349       1.37  <-- CONV
        O_D=      0.0228949 O_OD=      0.6757837 O_TOT=     11.8644580 <-- SPRD
 Delta: O_D=  0.4291664E-06 O_OD= -0.3594894E-05 O_TOT= -0.3165727E-05 <-- DLTA
 ------------------------------------------------------------------------------
 Cycle:    479
  WF centre and spread    1  (  1.240683, -1.061888,  1.234146 )     3.95244087
  WF centre and spread    2  ( -1.633640,  1.234729,  1.813587 )     3.95266141
  WF centre and spread    3  ( -1.049059,  1.260928,  1.261108 )     3.95935077
  Sum of centres and spreads ( -1.442015,  1.433769,  4.308841 )    11.86445305
 
    479    -0.371E-05     0.0010132267       11.8644543282       1.37  <-- CONV
        O_D=      0.0228956 O_OD=      0.6757793 O_TOT=     11.8644543 <-- SPRD
 Delta: O_D=  0.6740479E-06 O_OD= -0.4380722E-05 O_TOT= -0.3706674E-05 <-- DLTA
 ------------------------------------------------------------------------------
 Cycle:    480
  WF centre and spread    1  (  1.240728, -1.061838,  1.234256 )     3.95246208
  WF centre and spread    2  ( -1.633606,  1.234831,  1.813631 )     3.95267995
  WF centre and spread    3  ( -1.049133,  1.260774,  1.260952 )     3.95930775
  Sum of centres and spreads ( -1.442011,  1.433767,  4.308839 )    11.86444979
 
    480    -0.327E-05     0.0010055281       11.8644510617       1.37  <-- CONV
        O_D=      0.0228968 O_OD=      0.6757748 O_TOT=     11.8644511 <-- SPRD
 Delta: O_D=  0.1276328E-05 O_OD= -0.4542828E-05 O_TOT= -0.3266500E-05 <-- DLTA
 ------------------------------------------------------------------------------
 Cycle:    481
  WF centre and spread    1  (  1.240731, -1.061835,  1.234263 )     3.95246339
  WF centre and spread    2  ( -1.633604,  1.234838,  1.813634 )     3.95268044
  WF centre and spread    3  ( -1.049138,  1.260763,  1.260941 )     3.95930272
  Sum of centres and spreads ( -1.442011,  1.433766,  4.308839 )    11.86444655
 
    481    -0.324E-05     0.0013260793       11.8644478234       1.38  <-- CONV
        O_D=      0.0228954 O_OD=      0.6757730 O_TOT=     11.8644478 <-- SPRD
 Delta: O_D= -0.1410019E-05 O_OD= -0.1828238E-05 O_TOT= -0.3238257E-05 <-- DLTA
 ------------------------------------------------------------------------------
 Cycle:    482
  WF centre and spread    1  (  1.240740, -1.061824,  1.234286 )     3.95246910
  WF centre and spread    2  ( -1.633597,  1.234858,  1.813644 )     3.95268422
  WF centre and spread    3  ( -1.049154,  1.260731,  1.260908 )     3.95928961
  Sum of centres and spreads ( -1.442011,  1.433765,  4.308837 )    11.86444293
 
    482    -0.361E-05     0.0009945127       11.8644442087       1.38  <-- CONV
        O_D=      0.0228947 O_OD=      0.6757701 O_TOT=     11.8644442 <-- SPRD
 Delta: O_D= -0.7764269E-06 O_OD= -0.2838302E-05 O_TOT= -0.3614729E-05 <-- DLTA
 ------------------------------------------------------------------------------
 Cycle:    483
  WF centre and spread    1  (  1.240753, -1.061810,  1.234317 )     3.95247678
  WF centre and spread    2  ( -1.633587,  1.234887,  1.813656 )     3.95269008
  WF centre and spread    3  ( -1.049175,  1.260687,  1.260863 )     3.95927303
  Sum of centres and spreads ( -1.442010,  1.433764,  4.308836 )    11.86443989
 
    483    -0.304E-05     0.0009956830       11.8644411641       1.38  <-- CONV
        O_D=      0.0228941 O_OD=      0.6757676 O_TOT=     11.8644412 <-- SPRD
 Delta: O_D= -0.5148278E-06 O_OD= -0.2529763E-05 O_TOT= -0.3044591E-05 <-- DLTA
 ------------------------------------------------------------------------------
 Cycle:    484
  WF centre and spread    1  (  1.240766, -1.061796,  1.234349 )     3.95248373
  WF centre and spread    2  ( -1.633577,  1.234917,  1.813669 )     3.95269614
  WF centre and spread    3  ( -1.049197,  1.260643,  1.260818 )     3.95925805
  Sum of centres and spreads ( -1.442008,  1.433764,  4.308836 )    11.86443792
 
    484    -0.197E-05     0.0008178312       11.8644391927       1.38  <-- CONV
        O_D=      0.0228949 O_OD=      0.6757648 O_TOT=     11.8644392 <-- SPRD
 Delta: O_D=  0.7951038E-06 O_OD= -0.2766460E-05 O_TOT= -0.1971356E-05 <-- DLTA
 ------------------------------------------------------------------------------
 Cycle:    485
  WF centre and spread    1  (  1.240783, -1.061779,  1.234389 )     3.95249169
  WF centre and spread    2  ( -1.633563,  1.234955,  1.813685 )     3.95270339
  WF centre and spread    3  ( -1.049225,  1.260587,  1.260762 )     3.95924120
  Sum of centres and spreads ( -1.442005,  1.433764,  4.308836 )    11.86443628
 
    485    -0.164E-05     0.0006805321       11.8644375549       1.38  <-- CONV
        O_D=      0.0228956 O_OD=      0.6757625 O_TOT=     11.8644376 <-- SPRD
 Delta: O_D=  0.6619593E-06 O_OD= -0.2299857E-05 O_TOT= -0.1637898E-05 <-- DLTA
 ------------------------------------------------------------------------------
 Cycle:    486
  WF centre and spread    1  (  1.240806, -1.061753,  1.234446 )     3.95250261
  WF centre and spread    2  ( -1.633545,  1.235008,  1.813707 )     3.95271303
  WF centre and spread    3  ( -1.049264,  1.260509,  1.260682 )     3.95921892
  Sum of centres and spreads ( -1.442003,  1.433763,  4.308835 )    11.86443456
 
    486    -0.172E-05     0.0006745444       11.8644358364       1.39  <-- CONV
        O_D=      0.0228963 O_OD=      0.6757601 O_TOT=     11.8644358 <-- SPRD
 Delta: O_D=  0.6905989E-06 O_OD= -0.2409025E-05 O_TOT= -0.1718426E-05 <-- DLTA
 ------------------------------------------------------------------------------
 Cycle:    487
  WF centre and spread    1  (  1.240809, -1.061750,  1.234452 )     3.95250340
  WF centre and spread    2  ( -1.633543,  1.235014,  1.813710 )     3.95271337
  WF centre and spread    3  ( -1.049268,  1.260499,  1.260672 )     3.95921608
  Sum of centres and spreads ( -1.442003,  1.433762,  4.308835 )    11.86443286
 
    487    -0.170E-05     0.0009853802       11.8644341317       1.39  <-- CONV
        O_D=      0.0228953 O_OD=      0.6757594 O_TOT=     11.8644341 <-- SPRD
 Delta: O_D= -0.9517800E-06 O_OD= -0.7529077E-06 O_TOT= -0.1704688E-05 <-- DLTA
 ------------------------------------------------------------------------------
 Cycle:    488
  WF centre and spread    1  (  1.240816, -1.061741,  1.234472 )     3.95250668
  WF centre and spread    2  ( -1.633538,  1.235032,  1.813718 )     3.95271577
  WF centre and spread    3  ( -1.049282,  1.260470,  1.260643 )     3.95920880
  Sum of centres and spreads ( -1.442003,  1.433761,  4.308833 )    11.86443124
 
    488    -0.161E-05     0.0006700312       11.8644325196       1.39  <-- CONV
        O_D=      0.0228945 O_OD=      0.6757586 O_TOT=     11.8644325 <-- SPRD
 Delta: O_D= -0.8301093E-06 O_OD= -0.7820698E-06 O_TOT= -0.1612179E-05 <-- DLTA
 ------------------------------------------------------------------------------
 Cycle:    489
  WF centre and spread    1  (  1.240832, -1.061722,  1.234511 )     3.95251337
  WF centre and spread    2  ( -1.633526,  1.235068,  1.813735 )     3.95272147
  WF centre and spread    3  ( -1.049309,  1.260413,  1.260585 )     3.95919448
  Sum of centres and spreads ( -1.442002,  1.433759,  4.308832 )    11.86442932
 
    489    -0.192E-05     0.0006738445       11.8644305970       1.39  <-- CONV
        O_D=      0.0228936 O_OD=      0.6757576 O_TOT=     11.8644306 <-- SPRD
 Delta: O_D= -0.8865155E-06 O_OD= -0.1036024E-05 O_TOT= -0.1922539E-05 <-- DLTA
 ------------------------------------------------------------------------------
 Cycle:    490
  WF centre and spread    1  (  1.240864, -1.061687,  1.234589 )     3.95252668
  WF centre and spread    2  ( -1.633501,  1.235141,  1.813767 )     3.95273363
  WF centre and spread    3  ( -1.049362,  1.260303,  1.260474 )     3.95916609
  Sum of centres and spreads ( -1.441999,  1.433757,  4.308830 )    11.86442641
 
    490    -0.291E-05     0.0008061632       11.8644276833       1.39  <-- CONV
        O_D=      0.0228940 O_OD=      0.6757543 O_TOT=     11.8644277 <-- SPRD
 Delta: O_D=  0.3927027E-06 O_OD= -0.3306419E-05 O_TOT= -0.2913716E-05 <-- DLTA
 ------------------------------------------------------------------------------
 Cycle:    491
  WF centre and spread    1  (  1.240907, -1.061639,  1.234694 )     3.95254563
  WF centre and spread    2  ( -1.633468,  1.235239,  1.813810 )     3.95275089
  WF centre and spread    3  ( -1.049434,  1.260156,  1.260325 )     3.95912648
  Sum of centres and spreads ( -1.441995,  1.433756,  4.308829 )    11.86442300
 
    491    -0.341E-05     0.0009710444       11.8644242759       1.40  <-- CONV
        O_D=      0.0228946 O_OD=      0.6757502 O_TOT=     11.8644243 <-- SPRD
 Delta: O_D=  0.6250478E-06 O_OD= -0.4032474E-05 O_TOT= -0.3407426E-05 <-- DLTA
 ------------------------------------------------------------------------------
 Cycle:    492
  WF centre and spread    1  (  1.240950, -1.061591,  1.234799 )     3.95256604
  WF centre and spread    2  ( -1.633434,  1.235337,  1.813853 )     3.95276885
  WF centre and spread    3  ( -1.049506,  1.260008,  1.260175 )     3.95908510
  Sum of centres and spreads ( -1.441990,  1.433754,  4.308827 )    11.86441999
 
    492    -0.300E-05     0.0009630334       11.8644212709       1.40  <-- CONV
        O_D=      0.0228958 O_OD=      0.6757460 O_TOT=     11.8644213 <-- SPRD
 Delta: O_D=  0.1177398E-05 O_OD= -0.4182379E-05 O_TOT= -0.3004981E-05 <-- DLTA
 ------------------------------------------------------------------------------
 Cycle:    493
  WF centre and spread    1  (  1.240952, -1.061588,  1.234806 )     3.95256731
  WF centre and spread    2  ( -1.633432,  1.235343,  1.813855 )     3.95276935
  WF centre and spread    3  ( -1.049511,  1.259998,  1.260165 )     3.95908037
  Sum of centres and spreads ( -1.441990,  1.433753,  4.308827 )    11.86441702
 
    493    -0.297E-05     0.0012717265       11.8644182982       1.40  <-- CONV
        O_D=      0.0228945 O_OD=      0.6757444 O_TOT=     11.8644183 <-- SPRD
 Delta: O_D= -0.1300550E-05 O_OD= -0.1672148E-05 O_TOT= -0.2972698E-05 <-- DLTA
 ------------------------------------------------------------------------------
 Cycle:    494
  WF centre and spread    1  (  1.240961, -1.061578,  1.234828 )     3.95257274
  WF centre and spread    2  ( -1.633426,  1.235363,  1.813864 )     3.95277299
  WF centre and spread    3  ( -1.049525,  1.259967,  1.260133 )     3.95906798
  Sum of centres and spreads ( -1.441990,  1.433752,  4.308825 )    11.86441371
 
    494    -0.331E-05     0.0009518673       11.8644149856       1.40  <-- CONV
        O_D=      0.0228938 O_OD=      0.6757418 O_TOT=     11.8644150 <-- SPRD
 Delta: O_D= -0.7181279E-06 O_OD= -0.2594492E-05 O_TOT= -0.3312620E-05 <-- DLTA
 ------------------------------------------------------------------------------
 Cycle:    495
  WF centre and spread    1  (  1.240973, -1.061565,  1.234857 )     3.95258008
  WF centre and spread    2  ( -1.633416,  1.235390,  1.813876 )     3.95277865
  WF centre and spread    3  ( -1.049546,  1.259925,  1.260091 )     3.95905218
  Sum of centres and spreads ( -1.441989,  1.433751,  4.308824 )    11.86441091
 
    495    -0.280E-05     0.0009525691       11.8644121895       1.40  <-- CONV
        O_D=      0.0228933 O_OD=      0.6757394 O_TOT=     11.8644122 <-- SPRD
 Delta: O_D= -0.4677971E-06 O_OD= -0.2328264E-05 O_TOT= -0.2796061E-05 <-- DLTA
 ------------------------------------------------------------------------------
 Cycle:    496
  WF centre and spread    1  (  1.240986, -1.061552,  1.234888 )     3.95258673
  WF centre and spread    2  ( -1.633406,  1.235419,  1.813888 )     3.95278449
  WF centre and spread    3  ( -1.049567,  1.259883,  1.260048 )     3.95903789
  Sum of centres and spreads ( -1.441987,  1.433750,  4.308824 )    11.86440911
 
    496    -0.181E-05     0.0007844329       11.8644103813       1.41  <-- CONV
        O_D=      0.0228941 O_OD=      0.6757369 O_TOT=     11.8644104 <-- SPRD
 Delta: O_D=  0.7397397E-06 O_OD= -0.2547990E-05 O_TOT= -0.1808251E-05 <-- DLTA
 ------------------------------------------------------------------------------
 Cycle:    497
  WF centre and spread    1  (  1.241002, -1.061535,  1.234927 )     3.95259437
  WF centre and spread    2  ( -1.633393,  1.235455,  1.813903 )     3.95279150
  WF centre and spread    3  ( -1.049594,  1.259830,  1.259994 )     3.95902174
  Sum of centres and spreads ( -1.441985,  1.433750,  4.308824 )    11.86440760
 
    497    -0.150E-05     0.0006506471       11.8644088800       1.41  <-- CONV
        O_D=      0.0228947 O_OD=      0.6757348 O_TOT=     11.8644089 <-- SPRD
 Delta: O_D=  0.6232845E-06 O_OD= -0.2124512E-05 O_TOT= -0.1501227E-05 <-- DLTA
 ------------------------------------------------------------------------------
 Cycle:    498
  WF centre and spread    1  (  1.241024, -1.061511,  1.234981 )     3.95260490
  WF centre and spread    2  ( -1.633376,  1.235506,  1.813925 )     3.95280085
  WF centre and spread    3  ( -1.049631,  1.259755,  1.259918 )     3.95900028
  Sum of centres and spreads ( -1.441983,  1.433750,  4.308824 )    11.86440603
 
    498    -0.157E-05     0.0006465983       11.8644073090       1.41  <-- CONV
        O_D=      0.0228953 O_OD=      0.6757326 O_TOT=     11.8644073 <-- SPRD
 Delta: O_D=  0.6440761E-06 O_OD= -0.2215081E-05 O_TOT= -0.1571005E-05 <-- DLTA
 ------------------------------------------------------------------------------
 Cycle:    499
  WF centre and spread    1  (  1.241027, -1.061508,  1.234987 )     3.95260568
  WF centre and spread    2  ( -1.633374,  1.235512,  1.813927 )     3.95280120
  WF centre and spread    3  ( -1.049636,  1.259746,  1.259908 )     3.95899758
  Sum of centres and spreads ( -1.441983,  1.433749,  4.308823 )    11.86440446
 
    499    -0.157E-05     0.0009456377       11.8644057406       1.41  <-- CONV
        O_D=      0.0228945 O_OD=      0.6757319 O_TOT=     11.8644057 <-- SPRD
 Delta: O_D= -0.8822340E-06 O_OD= -0.6862330E-06 O_TOT= -0.1568467E-05 <-- DLTA
 ------------------------------------------------------------------------------
 Cycle:    500
  WF centre and spread    1  (  1.241034, -1.061499,  1.235006 )     3.95260885
  WF centre and spread    2  ( -1.633368,  1.235529,  1.813935 )     3.95280354
  WF centre and spread    3  ( -1.049648,  1.259718,  1.259881 )     3.95899060
  Sum of centres and spreads ( -1.441983,  1.433748,  4.308822 )    11.86440299
 
    500    -0.148E-05     0.0006430741       11.8644042621       1.41  <-- CONV
        O_D=      0.0228937 O_OD=      0.6757312 O_TOT=     11.8644043 <-- SPRD
 Delta: O_D= -0.7780984E-06 O_OD= -0.7003697E-06 O_TOT= -0.1478468E-05 <-- DLTA
 ------------------------------------------------------------------------------

 Writing checkpoint file mp-2534.chk... done

 Final State
  WF centre and spread    1  (  1.241034, -1.061499,  1.235006 )     3.95260885
  WF centre and spread    2  ( -1.633368,  1.235529,  1.813935 )     3.95280354
  WF centre and spread    3  ( -1.049648,  1.259718,  1.259881 )     3.95899060
  Sum of centres and spreads ( -1.441983,  1.433748,  4.308822 )    11.86440299
 
         Spreads (Ang^2)       Omega I      =    11.165779417
        ================       Omega D      =     0.022893673
                               Omega OD     =     0.675731172
    Final Spread (Ang^2)       Omega Total  =    11.864404262
 ------------------------------------------------------------------------------
 Time for wannierise            1.122 (sec)

 Writing checkpoint file mp-2534.chk... done

 Time for plotting              0.000 (sec)
 Total Execution Time           2.097 (sec)

 *===========================================================================*
 |                             TIMING INFORMATION                            |
 *===========================================================================*
 |    Tag                                                Ncalls      Time (s)|
 |---------------------------------------------------------------------------|
 |kmesh: get                                        :         1         0.760|
 |overlap: allocate                                 :         1         0.002|
 |overlap: read                                     :         1         0.114|
 |wann: main                                        :         1         1.122|
 |plot: main                                        :         1         0.000|
 *---------------------------------------------------------------------------*
 
 All done: wannier90 exiting
