 
             +---------------------------------------------------+
             |                                                   |
             |                   WANNIER90                       |
             |                                                   |
             +---------------------------------------------------+
             |                                                   |
             |        Welcome to the Maximally-Localized         |
             |        Generalized Wannier Functions code         |
             |            http://www.wannier.org                 |
             |                                                   |
             |                                                   |
             |  Wannier90 Developer Group:                       |
             |    Giovanni Pizzi    (EPFL)                       |
             |    Valerio Vitale    (Cambridge)                  |
             |    David Vanderbilt  (Rutgers University)         |
             |    Nicola Marzari    (EPFL)                       |
             |    Ivo Souza         (Universidad del Pais Vasco) |
             |    Arash A. Mostofi  (Imperial College London)    |
             |    Jonathan R. Yates (University of Oxford)       |
             |                                                   |
             |  For the full list of Wannier90 3.x authors,      |
             |  please check the code documentation and the      |
             |  README on the GitHub page of the code            |
             |                                                   |
             |                                                   |
             |  Please cite                                      |
             |                                                   |
             |  [ref] "Wannier90 as a community code:            |
             |        new features and applications",            |
             |        G. Pizzi et al., J. Phys. Cond. Matt. 32,  |
             |        165902 (2020).                             |
             |        http://doi.org/10.1088/1361-648X/ab51ff    |
             |                                                   |
             |  in any publications arising from the use of      |
             |  this code. For the method please cite            |
             |                                                   |
             |  [ref] "Maximally Localized Generalised Wannier   |
             |         Functions for Composite Energy Bands"     |
             |         N. Marzari and D. Vanderbilt              |
             |         Phys. Rev. B 56 12847 (1997)              |
             |                                                   |
             |  [ref] "Maximally Localized Wannier Functions     |
             |         for Entangled Energy Bands"               |
             |         I. Souza, N. Marzari and D. Vanderbilt    |
             |         Phys. Rev. B 65 035109 (2001)             |
             |                                                   |
             |                                                   |
             | Copyright (c) 1996-2020                           |
             |        The Wannier90 Developer Group and          |
             |        individual contributors                    |
             |                                                   |
             |      Release: 3.1.0        5th March    2020      |
             |                                                   |
             | This program is free software; you can            |
             | redistribute it and/or modify it under the terms  |
             | of the GNU General Public License as published by |
             | the Free Software Foundation; either version 2 of |
             | the License, or (at your option) any later version|
             |                                                   |
             | This program is distributed in the hope that it   |
             | will be useful, but WITHOUT ANY WARRANTY; without |
             | even the implied warranty of MERCHANTABILITY or   |
             | FITNESS FOR A PARTICULAR PURPOSE. See the GNU     |
             | General Public License for more details.          |
             |                                                   |
             | You should have received a copy of the GNU General|
             | Public License along with this program; if not,   |
             | write to the Free Software Foundation, Inc.,      |
             | 675 Mass Ave, Cambridge, MA 02139, USA.           |
             |                                                   |
             +---------------------------------------------------+
             |    Execution started on  3Jan2024 at 14:40:50     |
             +---------------------------------------------------+
 
 ******************************************************************************
 * -> Using CODATA 2006 constant values                                       *
 *    (http://physics.nist.gov/cuu/Constants/index.html)                      *
 * -> Using Bohr value from CODATA                                            *
 ******************************************************************************
 

 Running in parallel on   8 CPUs

 
                                    ------
                                    SYSTEM
                                    ------
 
                              Lattice Vectors (Ang)
                    a_1    -3.294541   0.000000   3.294541
                    a_2     0.000000   3.294541   3.294541
                    a_3    -3.294541   3.294541   0.000000
 
                   Unit Cell Volume:      71.51790  (Ang^3)
 
                        Reciprocal-Space Vectors (Ang^-1)
                    b_1    -0.953575  -0.953575   0.953575
                    b_2     0.953575   0.953575   0.953575
                    b_3    -0.953575   0.953575  -0.953575
  
 *----------------------------------------------------------------------------*
 |   Site       Fractional Coordinate          Cartesian Coordinate (Ang)     |
 +----------------------------------------------------------------------------+
 | K    1   0.00000   0.00000   0.00000   |    0.00000   0.00000   0.00000    |
 | Br   1   0.50000   0.50000   0.50000   |   -3.29454   3.29454   3.29454    |
 *----------------------------------------------------------------------------*
                                ------------
                                K-POINT GRID
                                ------------
  
             Grid size = 12 x 12 x 12      Total points = 1728
  
  
 *---------------------------------- MAIN ------------------------------------*
 |  Number of Wannier Functions               :                 3             |
 |  Number of Objective Wannier Functions     :                 3             |
 |  Number of input Bloch states              :                 3             |
 |  Output verbosity (1=low, 5=high)          :                 1             |
 |  Timing Level (1=low, 5=high)              :                 1             |
 |  Optimisation (0=memory, 3=speed)          :                 3             |
 |  Length Unit                               :               Ang             |
 |  Post-processing setup (write *.nnkp)      :                 F             |
 |  Using Gamma-only branch of algorithms     :                 F             |
 *----------------------------------------------------------------------------*
 *------------------------------- WANNIERISE ---------------------------------*
 |  Total number of iterations                :               500             |
 |  Number of CG steps before reset           :                 5             |
 |  Trial step length for line search         :             2.000             |
 |  Convergence tolerence                     :         0.100E-09             |
 |  Convergence window                        :                -1             |
 |  Iterations between writing output         :                 1             |
 |  Iterations between backing up to disk     :               100             |
 |  Write r^2_nm to file                      :                 F             |
 |  Write xyz WF centres to file              :                 F             |
 |  Write on-site energies <0n|H|0n> to file  :                 F             |
 |  Use guiding centre to control phases      :                 F             |
 |  Use phases for initial projections        :                 F             |
 *----------------------------------------------------------------------------*
 Time to read parameters        0.116 (sec)

 *---------------------------------- K-MESH ----------------------------------*
 +----------------------------------------------------------------------------+
 |                    Distance to Nearest-Neighbour Shells                    |
 |                    ------------------------------------                    |
 |          Shell             Distance (Ang^-1)          Multiplicity         |
 |          -----             -----------------          ------------         |
 |             1                   0.137637                      8            |
 |             2                   0.158929                      6            |
 |             3                   0.224760                     12            |
 |             4                   0.263554                     24            |
 |             5                   0.275273                      8            |
 |             6                   0.317858                      6            |
 |             7                   0.346378                     24            |
 |             8                   0.355377                     24            |
 |             9                   0.389295                     24            |
 |            10                   0.412910                     32            |
 |            11                   0.449520                     12            |
 |            12                   0.470119                     48            |
 |            13                   0.476788                     30            |
 |            14                   0.502578                     24            |
 |            15                   0.521084                     24            |
 |            16                   0.527109                     24            |
 |            17                   0.550547                      8            |
 |            18                   0.567491                     48            |
 |            19                   0.573027                     24            |
 |            20                   0.594659                     48            |
 |            21                   0.610379                     72            |
 |            22                   0.635717                      6            |
 |            23                   0.650446                     24            |
 |            24                   0.655282                     48            |
 |            25                   0.674280                     36            |
 |            26                   0.688184                     56            |
 |            27                   0.692756                     24            |
 |            28                   0.710753                     24            |
 |            29                   0.723957                     72            |
 |            30                   0.728305                     48            |
 |            31                   0.745444                     24            |
 |            32                   0.758044                     48            |
 |            33                   0.778591                     24            |
 |            34                   0.790663                     72            |
 |            35                   0.794646                     30            |
 |            36                   0.810383                     72            |
 +----------------------------------------------------------------------------+
 | The b-vectors are chosen automatically                                     |
 | The following shells are used:   1                                         |
 +----------------------------------------------------------------------------+
 |                        Shell   # Nearest-Neighbours                        |
 |                        -----   --------------------                        |
 |                          1               8                                 |
 +----------------------------------------------------------------------------+
 | Completeness relation is fully satisfied [Eq. (B1), PRB 56, 12847 (1997)]  |
 +----------------------------------------------------------------------------+
 |                  b_k Vectors (Ang^-1) and Weights (Ang^2)                  |
 |                  ----------------------------------------                  |
 |            No.         b_k(x)      b_k(y)      b_k(z)        w_b           |
 |            ---        --------------------------------     --------        |
 |             1        -0.079465    0.079465   -0.079465    19.795325        |
 |             2         0.079465    0.079465    0.079465    19.795325        |
 |             3        -0.079465   -0.079465    0.079465    19.795325        |
 |             4        -0.079465    0.079465    0.079465    19.795325        |
 |             5         0.079465   -0.079465    0.079465    19.795325        |
 |             6        -0.079465   -0.079465   -0.079465    19.795325        |
 |             7         0.079465    0.079465   -0.079465    19.795325        |
 |             8         0.079465   -0.079465   -0.079465    19.795325        |
 +----------------------------------------------------------------------------+
 |                           b_k Directions (Ang^-1)                          |
 |                           -----------------------                          |
 |            No.           x           y           z                         |
 |            ---        --------------------------------                     |
 |             1        -0.079465    0.079465   -0.079465                     |
 |             2         0.079465    0.079465    0.079465                     |
 |             3        -0.079465   -0.079465    0.079465                     |
 |             4        -0.079465    0.079465    0.079465                     |
 +----------------------------------------------------------------------------+
  
 Time to get kmesh              1.039 (sec)
 *============================================================================*
 |                              MEMORY ESTIMATE                               |
 |         Maximum RAM allocated during each phase of the calculation         |
 *============================================================================*
 |                            Wannierise:            7.00 Mb                  |
 |                          plot_wannier:            7.00 Mb                  |
 *----------------------------------------------------------------------------*
  
 Starting a new Wannier90 calculation ...


 Reading overlaps from mp-23251.mmn    :  Created on  3Jan2024 at 14:39:15

 Reading projections from mp-23251.amn :  Created on  3Jan2024 at 14:39:10  with SCDM

 Time to read overlaps          0.141 (sec)

 Writing checkpoint file mp-23251.chk... done

 
 *------------------------------- WANNIERISE ---------------------------------*
 +--------------------------------------------------------------------+<-- CONV
 | Iter  Delta Spread     RMS Gradient      Spread (Ang^2)      Time  |<-- CONV
 +--------------------------------------------------------------------+<-- CONV
 
 ------------------------------------------------------------------------------
 Initial State
  WF centre and spread    1  ( -0.000435, -0.000442, -3.294924 )     1.83618783
  WF centre and spread    2  (  3.295248, -0.000166,  0.000057 )     1.83727719
  WF centre and spread    3  ( -0.000202,  3.295238,  0.000188 )     1.83730724
  Sum of centres and spreads (  3.294611,  3.294629, -3.294679 )     5.51077226
 
      0     0.551E+01     0.0000000000        5.5107748697       0.00  <-- CONV
        O_D=      0.0196450 O_OD=      0.0358588 O_TOT=      5.5107749 <-- SPRD
 ------------------------------------------------------------------------------
 Cycle:      1
  WF centre and spread    1  ( -0.000105, -0.000103, -3.294633 )     1.82289263
  WF centre and spread    2  (  3.294722, -0.000046,  0.000020 )     1.82318202
  WF centre and spread    3  ( -0.000054,  3.294713,  0.000049 )     1.82328929
  Sum of centres and spreads (  3.294563,  3.294565, -3.294565 )     5.46936394
 
      1    -0.414E-01     0.0527502391        5.4693665421       0.01  <-- CONV
        O_D=      0.0024675 O_OD=      0.0116280 O_TOT=      5.4693665 <-- SPRD
 Delta: O_D= -0.1717748E-01 O_OD= -0.2423085E-01 O_TOT= -0.4140833E-01 <-- DLTA
 ------------------------------------------------------------------------------
 Cycle:      2
  WF centre and spread    1  ( -0.000072, -0.000070, -3.294607 )     1.82200373
  WF centre and spread    2  (  3.294667, -0.000033,  0.000015 )     1.82223123
  WF centre and spread    3  ( -0.000038,  3.294660,  0.000035 )     1.82232718
  Sum of centres and spreads (  3.294557,  3.294558, -3.294557 )     5.46656214
 
      2    -0.280E-02     0.0298698813        5.4665647436       0.02  <-- CONV
        O_D=      0.0013194 O_OD=      0.0099743 O_TOT=      5.4665647 <-- SPRD
 Delta: O_D= -0.1148091E-02 O_OD= -0.1653708E-02 O_TOT= -0.2801799E-02 <-- DLTA
 ------------------------------------------------------------------------------
 Cycle:      3
  WF centre and spread    1  ( -0.000040, -0.000039, -3.294578 )     1.82131212
  WF centre and spread    2  (  3.294613, -0.000019,  0.000009 )     1.82149525
  WF centre and spread    3  ( -0.000021,  3.294609,  0.000019 )     1.82162359
  Sum of centres and spreads (  3.294552,  3.294551, -3.294550 )     5.46443096
 
      3    -0.213E-02     0.0331871755        5.4644335618       0.03  <-- CONV
        O_D=      0.0005464 O_OD=      0.0086161 O_TOT=      5.4644336 <-- SPRD
 Delta: O_D= -0.7729589E-03 O_OD= -0.1358223E-02 O_TOT= -0.2131182E-02 <-- DLTA
 ------------------------------------------------------------------------------
 Cycle:      4
  WF centre and spread    1  ( -0.000023, -0.000023, -3.294562 )     1.82102699
  WF centre and spread    2  (  3.294584, -0.000011,  0.000005 )     1.82118418
  WF centre and spread    3  ( -0.000012,  3.294581,  0.000011 )     1.82132156
  Sum of centres and spreads (  3.294548,  3.294547, -3.294546 )     5.46353273
 
      4    -0.898E-03     0.0211530046        5.4635353380       0.04  <-- CONV
        O_D=      0.0002580 O_OD=      0.0080062 O_TOT=      5.4635353 <-- SPRD
 Delta: O_D= -0.2883871E-03 O_OD= -0.6098367E-03 O_TOT= -0.8982238E-03 <-- DLTA
 ------------------------------------------------------------------------------
 Cycle:      5
  WF centre and spread    1  ( -0.000011, -0.000010, -3.294551 )     1.82086290
  WF centre and spread    2  (  3.294561, -0.000005,  0.000002 )     1.82100078
  WF centre and spread    3  ( -0.000005,  3.294560,  0.000005 )     1.82114667
  Sum of centres and spreads (  3.294545,  3.294544, -3.294544 )     5.46301035
 
      5    -0.522E-03     0.0158196885        5.4630129573       0.05  <-- CONV
        O_D=      0.0000989 O_OD=      0.0076430 O_TOT=      5.4630130 <-- SPRD
 Delta: O_D= -0.1591685E-03 O_OD= -0.3632122E-03 O_TOT= -0.5223807E-03 <-- DLTA
 ------------------------------------------------------------------------------
 Cycle:      6
  WF centre and spread    1  ( -0.000005, -0.000005, -3.294546 )     1.82080049
  WF centre and spread    2  (  3.294550, -0.000002,  0.000001 )     1.82092992
  WF centre and spread    3  ( -0.000002,  3.294550,  0.000002 )     1.82108119
  Sum of centres and spreads (  3.294544,  3.294543, -3.294542 )     5.46281160
 
      6    -0.199E-03     0.0107558936        5.4628142013       0.06  <-- CONV
        O_D=      0.0000342 O_OD=      0.0075089 O_TOT=      5.4628142 <-- SPRD
 Delta: O_D= -0.6468517E-04 O_OD= -0.1340709E-03 O_TOT= -0.1987560E-03 <-- DLTA
 ------------------------------------------------------------------------------
 Cycle:      7
  WF centre and spread    1  ( -0.000004, -0.000004, -3.294545 )     1.82078396
  WF centre and spread    2  (  3.294550, -0.000002,  0.000001 )     1.82091208
  WF centre and spread    3  ( -0.000002,  3.294549,  0.000002 )     1.82106396
  Sum of centres and spreads (  3.294544,  3.294543, -3.294542 )     5.46276000
 
      7    -0.516E-04     0.0062421501        5.4627626016       0.06  <-- CONV
        O_D=      0.0000159 O_OD=      0.0074757 O_TOT=      5.4627626 <-- SPRD
 Delta: O_D= -0.1832123E-04 O_OD= -0.3327841E-04 O_TOT= -0.5159964E-04 <-- DLTA
 ------------------------------------------------------------------------------
 Cycle:      8
  WF centre and spread    1  ( -0.000003, -0.000004, -3.294545 )     1.82077514
  WF centre and spread    2  (  3.294548, -0.000002,  0.000001 )     1.82090169
  WF centre and spread    3  ( -0.000002,  3.294548,  0.000002 )     1.82105427
  Sum of centres and spreads (  3.294543,  3.294542, -3.294542 )     5.46273110
 
      8    -0.289E-04     0.0038796880        5.4627337020       0.07  <-- CONV
        O_D=      0.0000053 O_OD=      0.0074574 O_TOT=      5.4627337 <-- SPRD
 Delta: O_D= -0.1060766E-04 O_OD= -0.1829198E-04 O_TOT= -0.2889964E-04 <-- DLTA
 ------------------------------------------------------------------------------
 Cycle:      9
  WF centre and spread    1  ( -0.000003, -0.000003, -3.294544 )     1.82077237
  WF centre and spread    2  (  3.294547, -0.000002,  0.000001 )     1.82089824
  WF centre and spread    3  ( -0.000001,  3.294547,  0.000001 )     1.82105114
  Sum of centres and spreads (  3.294543,  3.294542, -3.294542 )     5.46272174
 
      9    -0.935E-05     0.0023316484        5.4627243497       0.08  <-- CONV
        O_D=      0.0000021 O_OD=      0.0074512 O_TOT=      5.4627243 <-- SPRD
 Delta: O_D= -0.3151039E-05 O_OD= -0.6201214E-05 O_TOT= -0.9352253E-05 <-- DLTA
 ------------------------------------------------------------------------------
 Cycle:     10
  WF centre and spread    1  ( -0.000002, -0.000002, -3.294544 )     1.82077121
  WF centre and spread    2  (  3.294546, -0.000001,  0.000001 )     1.82089660
  WF centre and spread    3  ( -0.000001,  3.294546,  0.000001 )     1.82104969
  Sum of centres and spreads (  3.294543,  3.294542, -3.294542 )     5.46271749
 
     10    -0.425E-05     0.0014521675        5.4627200974       0.09  <-- CONV
        O_D=      0.0000009 O_OD=      0.0074482 O_TOT=      5.4627201 <-- SPRD
 Delta: O_D= -0.1241127E-05 O_OD= -0.3011233E-05 O_TOT= -0.4252360E-05 <-- DLTA
 ------------------------------------------------------------------------------
 Cycle:     11
  WF centre and spread    1  ( -0.000002, -0.000002, -3.294543 )     1.82077080
  WF centre and spread    2  (  3.294545, -0.000001,  0.000001 )     1.82089589
  WF centre and spread    3  ( -0.000001,  3.294545,  0.000001 )     1.82104912
  Sum of centres and spreads (  3.294543,  3.294542, -3.294542 )     5.46271581
 
     11    -0.168E-05     0.0010135450        5.4627184124       0.09  <-- CONV
        O_D=      0.0000004 O_OD=      0.0074469 O_TOT=      5.4627184 <-- SPRD
 Delta: O_D= -0.4411119E-06 O_OD= -0.1243872E-05 O_TOT= -0.1684984E-05 <-- DLTA
 ------------------------------------------------------------------------------
 Cycle:     12
  WF centre and spread    1  ( -0.000001, -0.000002, -3.294543 )     1.82077064
  WF centre and spread    2  (  3.294544, -0.000001,  0.000001 )     1.82089546
  WF centre and spread    3  ( -0.000000,  3.294544,  0.000001 )     1.82104883
  Sum of centres and spreads (  3.294543,  3.294542, -3.294541 )     5.46271493
 
     12    -0.881E-06     0.0005856048        5.4627175311       0.10  <-- CONV
        O_D=      0.0000002 O_OD=      0.0074462 O_TOT=      5.4627175 <-- SPRD
 Delta: O_D= -0.1797699E-06 O_OD= -0.7015116E-06 O_TOT= -0.8812815E-06 <-- DLTA
 ------------------------------------------------------------------------------
 Cycle:     13
  WF centre and spread    1  ( -0.000001, -0.000002, -3.294543 )     1.82077056
  WF centre and spread    2  (  3.294544, -0.000001,  0.000001 )     1.82089534
  WF centre and spread    3  ( -0.000000,  3.294544,  0.000001 )     1.82104873
  Sum of centres and spreads (  3.294543,  3.294542, -3.294541 )     5.46271462
 
     13    -0.305E-06     0.0005116019        5.4627172258       0.11  <-- CONV
        O_D=      0.0000001 O_OD=      0.0074460 O_TOT=      5.4627172 <-- SPRD
 Delta: O_D= -0.1034361E-06 O_OD= -0.2018911E-06 O_TOT= -0.3053272E-06 <-- DLTA
 ------------------------------------------------------------------------------
 Cycle:     14
  WF centre and spread    1  ( -0.000001, -0.000001, -3.294543 )     1.82077051
  WF centre and spread    2  (  3.294544, -0.000001,  0.000001 )     1.82089521
  WF centre and spread    3  ( -0.000000,  3.294544,  0.000001 )     1.82104866
  Sum of centres and spreads (  3.294543,  3.294542, -3.294541 )     5.46271438
 
     14    -0.245E-06     0.0003093901        5.4627169805       0.12  <-- CONV
        O_D=      0.0000001 O_OD=      0.0074458 O_TOT=      5.4627170 <-- SPRD
 Delta: O_D= -0.5446686E-07 O_OD= -0.1908326E-06 O_TOT= -0.2452994E-06 <-- DLTA
 ------------------------------------------------------------------------------
 Cycle:     15
  WF centre and spread    1  ( -0.000001, -0.000001, -3.294542 )     1.82077048
  WF centre and spread    2  (  3.294543, -0.000001,  0.000000 )     1.82089511
  WF centre and spread    3  ( -0.000000,  3.294543,  0.000000 )     1.82104861
  Sum of centres and spreads (  3.294543,  3.294541, -3.294541 )     5.46271419
 
     15    -0.183E-06     0.0002902698        5.4627167978       0.12  <-- CONV
        O_D=      0.0000001 O_OD=      0.0074457 O_TOT=      5.4627168 <-- SPRD
 Delta: O_D= -0.3074306E-07 O_OD= -0.1519693E-06 O_TOT= -0.1827124E-06 <-- DLTA
 ------------------------------------------------------------------------------
 Cycle:     16
  WF centre and spread    1  ( -0.000000, -0.000001, -3.294542 )     1.82077045
  WF centre and spread    2  (  3.294543, -0.000000,  0.000000 )     1.82089502
  WF centre and spread    3  (  0.000000,  3.294542,  0.000000 )     1.82104858
  Sum of centres and spreads (  3.294542,  3.294541, -3.294541 )     5.46271405
 
     16    -0.144E-06     0.0002381433        5.4627166534       0.13  <-- CONV
        O_D=      0.0000000 O_OD=      0.0074455 O_TOT=      5.4627167 <-- SPRD
 Delta: O_D= -0.1745334E-07 O_OD= -0.1269546E-06 O_TOT= -0.1444080E-06 <-- DLTA
 ------------------------------------------------------------------------------
 Cycle:     17
  WF centre and spread    1  (  0.000000, -0.000000, -3.294542 )     1.82077043
  WF centre and spread    2  (  3.294542, -0.000000,  0.000000 )     1.82089494
  WF centre and spread    3  (  0.000000,  3.294542,  0.000000 )     1.82104856
  Sum of centres and spreads (  3.294542,  3.294541, -3.294541 )     5.46271393
 
     17    -0.114E-06     0.0002243782        5.4627165392       0.14  <-- CONV
        O_D=      0.0000000 O_OD=      0.0074454 O_TOT=      5.4627165 <-- SPRD
 Delta: O_D= -0.1450636E-07 O_OD= -0.9965354E-07 O_TOT= -0.1141599E-06 <-- DLTA
 ------------------------------------------------------------------------------
 Cycle:     18
  WF centre and spread    1  (  0.000000,  0.000000, -3.294541 )     1.82077042
  WF centre and spread    2  (  3.294541, -0.000000,  0.000000 )     1.82089489
  WF centre and spread    3  (  0.000001,  3.294541, -0.000000 )     1.82104854
  Sum of centres and spreads (  3.294542,  3.294541, -3.294541 )     5.46271386
 
     18    -0.729E-07     0.0001735110        5.4627164663       0.14  <-- CONV
        O_D=      0.0000000 O_OD=      0.0074454 O_TOT=      5.4627165 <-- SPRD
 Delta: O_D= -0.8357922E-08 O_OD= -0.6454960E-07 O_TOT= -0.7290752E-07 <-- DLTA
 ------------------------------------------------------------------------------
 Cycle:     19
  WF centre and spread    1  (  0.000000,  0.000000, -3.294541 )     1.82077041
  WF centre and spread    2  (  3.294541, -0.000000,  0.000000 )     1.82089488
  WF centre and spread    3  (  0.000001,  3.294541, -0.000000 )     1.82104853
  Sum of centres and spreads (  3.294542,  3.294541, -3.294541 )     5.46271382
 
     19    -0.391E-07     0.0001763321        5.4627164272       0.15  <-- CONV
        O_D=      0.0000000 O_OD=      0.0074454 O_TOT=      5.4627164 <-- SPRD
 Delta: O_D= -0.1009742E-07 O_OD= -0.2904447E-07 O_TOT= -0.3914189E-07 <-- DLTA
 ------------------------------------------------------------------------------
 Cycle:     20
  WF centre and spread    1  (  0.000000,  0.000000, -3.294541 )     1.82077040
  WF centre and spread    2  (  3.294541, -0.000000,  0.000000 )     1.82089487
  WF centre and spread    3  (  0.000001,  3.294541, -0.000000 )     1.82104851
  Sum of centres and spreads (  3.294542,  3.294541, -3.294541 )     5.46271379
 
     20    -0.362E-07     0.0001131545        5.4627163910       0.16  <-- CONV
        O_D=      0.0000000 O_OD=      0.0074453 O_TOT=      5.4627164 <-- SPRD
 Delta: O_D= -0.1428435E-08 O_OD= -0.3473659E-07 O_TOT= -0.3616502E-07 <-- DLTA
 ------------------------------------------------------------------------------
 Cycle:     21
  WF centre and spread    1  (  0.000000, -0.000000, -3.294541 )     1.82077038
  WF centre and spread    2  (  3.294541, -0.000000,  0.000000 )     1.82089486
  WF centre and spread    3  (  0.000001,  3.294541,  0.000000 )     1.82104850
  Sum of centres and spreads (  3.294542,  3.294541, -3.294541 )     5.46271374
 
     21    -0.471E-07     0.0001207518        5.4627163438       0.17  <-- CONV
        O_D=      0.0000000 O_OD=      0.0074453 O_TOT=      5.4627163 <-- SPRD
 Delta: O_D=  0.4225698E-08 O_OD= -0.5137503E-07 O_TOT= -0.4714933E-07 <-- DLTA
 ------------------------------------------------------------------------------
 Cycle:     22
  WF centre and spread    1  (  0.000000, -0.000000, -3.294541 )     1.82077032
  WF centre and spread    2  (  3.294542, -0.000000,  0.000000 )     1.82089486
  WF centre and spread    3  (  0.000001,  3.294541,  0.000000 )     1.82104847
  Sum of centres and spreads (  3.294542,  3.294541, -3.294541 )     5.46271366
 
     22    -0.831E-07     0.0001355569        5.4627162607       0.17  <-- CONV
        O_D=      0.0000000 O_OD=      0.0074452 O_TOT=      5.4627163 <-- SPRD
 Delta: O_D=  0.1672956E-07 O_OD= -0.9984874E-07 O_TOT= -0.8311919E-07 <-- DLTA
 ------------------------------------------------------------------------------
 Cycle:     23
  WF centre and spread    1  (  0.000000, -0.000000, -3.294541 )     1.82077021
  WF centre and spread    2  (  3.294542, -0.000000,  0.000000 )     1.82089485
  WF centre and spread    3  (  0.000000,  3.294542,  0.000000 )     1.82104845
  Sum of centres and spreads (  3.294542,  3.294541, -3.294541 )     5.46271351
 
     23    -0.149E-06     0.0002037591        5.4627161120       0.18  <-- CONV
        O_D=      0.0000001 O_OD=      0.0074450 O_TOT=      5.4627161 <-- SPRD
 Delta: O_D=  0.3406514E-07 O_OD= -0.1828075E-06 O_TOT= -0.1487424E-06 <-- DLTA
 ------------------------------------------------------------------------------
 Cycle:     24
  WF centre and spread    1  (  0.000000, -0.000000, -3.294541 )     1.82077004
  WF centre and spread    2  (  3.294542, -0.000000,  0.000000 )     1.82089483
  WF centre and spread    3  (  0.000000,  3.294542,  0.000000 )     1.82104842
  Sum of centres and spreads (  3.294542,  3.294541, -3.294541 )     5.46271329
 
     24    -0.215E-06     0.0002401978        5.4627158966       0.19  <-- CONV
        O_D=      0.0000001 O_OD=      0.0074447 O_TOT=      5.4627159 <-- SPRD
 Delta: O_D=  0.5375332E-07 O_OD= -0.2690834E-06 O_TOT= -0.2153301E-06 <-- DLTA
 ------------------------------------------------------------------------------
 Cycle:     25
  WF centre and spread    1  (  0.000000, -0.000000, -3.294541 )     1.82076999
  WF centre and spread    2  (  3.294542, -0.000000,  0.000000 )     1.82089476
  WF centre and spread    3  (  0.000000,  3.294542,  0.000000 )     1.82104836
  Sum of centres and spreads (  3.294542,  3.294541, -3.294541 )     5.46271311
 
     25    -0.182E-06     0.0003884110        5.4627157145       0.19  <-- CONV
        O_D=      0.0000001 O_OD=      0.0074446 O_TOT=      5.4627157 <-- SPRD
 Delta: O_D= -0.5712333E-07 O_OD= -0.1250205E-06 O_TOT= -0.1821438E-06 <-- DLTA
 ------------------------------------------------------------------------------
 Cycle:     26
  WF centre and spread    1  (  0.000000, -0.000000, -3.294541 )     1.82076996
  WF centre and spread    2  (  3.294542, -0.000000,  0.000000 )     1.82089469
  WF centre and spread    3  (  0.000000,  3.294542,  0.000000 )     1.82104833
  Sum of centres and spreads (  3.294542,  3.294541, -3.294541 )     5.46271298
 
     26    -0.130E-06     0.0002338996        5.4627155843       0.20  <-- CONV
        O_D=      0.0000000 O_OD=      0.0074445 O_TOT=      5.4627156 <-- SPRD
 Delta: O_D= -0.2686786E-07 O_OD= -0.1033268E-06 O_TOT= -0.1301947E-06 <-- DLTA
 ------------------------------------------------------------------------------
 Cycle:     27
  WF centre and spread    1  (  0.000000, -0.000000, -3.294541 )     1.82076995
  WF centre and spread    2  (  3.294542, -0.000000,  0.000000 )     1.82089463
  WF centre and spread    3  (  0.000000,  3.294542,  0.000000 )     1.82104831
  Sum of centres and spreads (  3.294542,  3.294541, -3.294541 )     5.46271289
 
     27    -0.929E-07     0.0002041569        5.4627154914       0.21  <-- CONV
        O_D=      0.0000000 O_OD=      0.0074444 O_TOT=      5.4627155 <-- SPRD
 Delta: O_D= -0.1421885E-07 O_OD= -0.7872944E-07 O_TOT= -0.9294829E-07 <-- DLTA
 ------------------------------------------------------------------------------
 Cycle:     28
  WF centre and spread    1  (  0.000000, -0.000000, -3.294541 )     1.82076994
  WF centre and spread    2  (  3.294542, -0.000000,  0.000000 )     1.82089459
  WF centre and spread    3  (  0.000000,  3.294542,  0.000000 )     1.82104830
  Sum of centres and spreads (  3.294542,  3.294541, -3.294541 )     5.46271282
 
     28    -0.630E-07     0.0001673680        5.4627154284       0.21  <-- CONV
        O_D=      0.0000000 O_OD=      0.0074443 O_TOT=      5.4627154 <-- SPRD
 Delta: O_D= -0.6201349E-08 O_OD= -0.5675182E-07 O_TOT= -0.6295317E-07 <-- DLTA
 ------------------------------------------------------------------------------
 Cycle:     29
  WF centre and spread    1  (  0.000000, -0.000000, -3.294541 )     1.82076993
  WF centre and spread    2  (  3.294542, -0.000000,  0.000000 )     1.82089455
  WF centre and spread    3  (  0.000000,  3.294542,  0.000000 )     1.82104829
  Sum of centres and spreads (  3.294542,  3.294541, -3.294541 )     5.46271278
 
     29    -0.462E-07     0.0001362406        5.4627153822       0.22  <-- CONV
        O_D=      0.0000000 O_OD=      0.0074443 O_TOT=      5.4627154 <-- SPRD
 Delta: O_D= -0.9390315E-09 O_OD= -0.4525399E-07 O_TOT= -0.4619303E-07 <-- DLTA
 ------------------------------------------------------------------------------
 Cycle:     30
  WF centre and spread    1  (  0.000000, -0.000000, -3.294541 )     1.82076992
  WF centre and spread    2  (  3.294542, -0.000000,  0.000000 )     1.82089453
  WF centre and spread    3  (  0.000001,  3.294541,  0.000000 )     1.82104829
  Sum of centres and spreads (  3.294542,  3.294541, -3.294541 )     5.46271274
 
     30    -0.367E-07     0.0001212026        5.4627153455       0.23  <-- CONV
        O_D=      0.0000000 O_OD=      0.0074443 O_TOT=      5.4627153 <-- SPRD
 Delta: O_D=  0.4216060E-08 O_OD= -0.4096486E-07 O_TOT= -0.3674880E-07 <-- DLTA
 ------------------------------------------------------------------------------
 Cycle:     31
  WF centre and spread    1  (  0.000000, -0.000000, -3.294541 )     1.82076991
  WF centre and spread    2  (  3.294542, -0.000000,  0.000000 )     1.82089452
  WF centre and spread    3  (  0.000001,  3.294541,  0.000000 )     1.82104828
  Sum of centres and spreads (  3.294542,  3.294541, -3.294541 )     5.46271271
 
     31    -0.323E-07     0.0001507309        5.4627153132       0.24  <-- CONV
        O_D=      0.0000000 O_OD=      0.0074442 O_TOT=      5.4627153 <-- SPRD
 Delta: O_D= -0.6910276E-08 O_OD= -0.2537025E-07 O_TOT= -0.3228052E-07 <-- DLTA
 ------------------------------------------------------------------------------
 Cycle:     32
  WF centre and spread    1  (  0.000000, -0.000000, -3.294541 )     1.82076990
  WF centre and spread    2  (  3.294542, -0.000000,  0.000000 )     1.82089451
  WF centre and spread    3  (  0.000001,  3.294541,  0.000000 )     1.82104826
  Sum of centres and spreads (  3.294542,  3.294541, -3.294541 )     5.46271267
 
     32    -0.398E-07     0.0001118865        5.4627152734       0.24  <-- CONV
        O_D=      0.0000000 O_OD=      0.0074442 O_TOT=      5.4627153 <-- SPRD
 Delta: O_D=  0.6730039E-09 O_OD= -0.4048679E-07 O_TOT= -0.3981378E-07 <-- DLTA
 ------------------------------------------------------------------------------
 Cycle:     33
  WF centre and spread    1  (  0.000000, -0.000000, -3.294541 )     1.82076986
  WF centre and spread    2  (  3.294542, -0.000000,  0.000000 )     1.82089451
  WF centre and spread    3  (  0.000001,  3.294541,  0.000000 )     1.82104824
  Sum of centres and spreads (  3.294542,  3.294541, -3.294541 )     5.46271261
 
     33    -0.550E-07     0.0001285386        5.4627152184       0.25  <-- CONV
        O_D=      0.0000000 O_OD=      0.0074441 O_TOT=      5.4627152 <-- SPRD
 Delta: O_D=  0.1062286E-07 O_OD= -0.6561284E-07 O_TOT= -0.5498998E-07 <-- DLTA
 ------------------------------------------------------------------------------
 Cycle:     34
  WF centre and spread    1  (  0.000000, -0.000000, -3.294541 )     1.82076978
  WF centre and spread    2  (  3.294541, -0.000000,  0.000000 )     1.82089451
  WF centre and spread    3  (  0.000001,  3.294541,  0.000000 )     1.82104822
  Sum of centres and spreads (  3.294542,  3.294541, -3.294541 )     5.46271252
 
     34    -0.911E-07     0.0001784808        5.4627151273       0.26  <-- CONV
        O_D=      0.0000000 O_OD=      0.0074440 O_TOT=      5.4627151 <-- SPRD
 Delta: O_D=  0.1686522E-07 O_OD= -0.1079432E-06 O_TOT= -0.9107799E-07 <-- DLTA
 ------------------------------------------------------------------------------
 Cycle:     35
  WF centre and spread    1  (  0.000000,  0.000000, -3.294541 )     1.82076969
  WF centre and spread    2  (  3.294541, -0.000000,  0.000000 )     1.82089451
  WF centre and spread    3  (  0.000001,  3.294541,  0.000000 )     1.82104821
  Sum of centres and spreads (  3.294542,  3.294541, -3.294541 )     5.46271240
 
     35    -0.120E-06     0.0001998356        5.4627150076       0.26  <-- CONV
        O_D=      0.0000000 O_OD=      0.0074439 O_TOT=      5.4627150 <-- SPRD
 Delta: O_D=  0.1522224E-07 O_OD= -0.1348740E-06 O_TOT= -0.1196517E-06 <-- DLTA
 ------------------------------------------------------------------------------
 Cycle:     36
  WF centre and spread    1  (  0.000000,  0.000000, -3.294541 )     1.82076956
  WF centre and spread    2  (  3.294541, -0.000000,  0.000000 )     1.82089448
  WF centre and spread    3  (  0.000001,  3.294541,  0.000000 )     1.82104819
  Sum of centres and spreads (  3.294542,  3.294541, -3.294541 )     5.46271223
 
     36    -0.168E-06     0.0002124015        5.4627148392       0.27  <-- CONV
        O_D=      0.0000001 O_OD=      0.0074437 O_TOT=      5.4627148 <-- SPRD
 Delta: O_D=  0.3774043E-07 O_OD= -0.2062288E-06 O_TOT= -0.1684884E-06 <-- DLTA
 ------------------------------------------------------------------------------
 Cycle:     37
  WF centre and spread    1  (  0.000000,  0.000000, -3.294541 )     1.82076952
  WF centre and spread    2  (  3.294541, -0.000000,  0.000000 )     1.82089441
  WF centre and spread    3  (  0.000001,  3.294541,  0.000000 )     1.82104814
  Sum of centres and spreads (  3.294542,  3.294541, -3.294541 )     5.46271208
 
     37    -0.159E-06     0.0003553274        5.4627146802       0.28  <-- CONV
        O_D=      0.0000000 O_OD=      0.0074436 O_TOT=      5.4627147 <-- SPRD
 Delta: O_D= -0.4445571E-07 O_OD= -0.1144662E-06 O_TOT= -0.1589219E-06 <-- DLTA
 ------------------------------------------------------------------------------
 Cycle:     38
  WF centre and spread    1  (  0.000000, -0.000000, -3.294541 )     1.82076951
  WF centre and spread    2  (  3.294541, -0.000000,  0.000000 )     1.82089434
  WF centre and spread    3  (  0.000001,  3.294541,  0.000000 )     1.82104810
  Sum of centres and spreads (  3.294542,  3.294541, -3.294541 )     5.46271196
 
     38    -0.115E-06     0.0002189918        5.4627145649       0.29  <-- CONV
        O_D=      0.0000000 O_OD=      0.0074435 O_TOT=      5.4627146 <-- SPRD
 Delta: O_D= -0.1741315E-07 O_OD= -0.9792375E-07 O_TOT= -0.1153369E-06 <-- DLTA
 ------------------------------------------------------------------------------
 Cycle:     39
  WF centre and spread    1  (  0.000000, -0.000000, -3.294541 )     1.82076951
  WF centre and spread    2  (  3.294542, -0.000000,  0.000000 )     1.82089428
  WF centre and spread    3  (  0.000001,  3.294541,  0.000000 )     1.82104808
  Sum of centres and spreads (  3.294542,  3.294541, -3.294541 )     5.46271187
 
     39    -0.908E-07     0.0001968560        5.4627144741       0.29  <-- CONV
        O_D=      0.0000000 O_OD=      0.0074434 O_TOT=      5.4627145 <-- SPRD
 Delta: O_D= -0.1124037E-07 O_OD= -0.7960748E-07 O_TOT= -0.9084785E-07 <-- DLTA
 ------------------------------------------------------------------------------
 Cycle:     40
  WF centre and spread    1  (  0.000000, -0.000000, -3.294541 )     1.82076950
  WF centre and spread    2  (  3.294542, -0.000000,  0.000000 )     1.82089424
  WF centre and spread    3  (  0.000001,  3.294541,  0.000000 )     1.82104807
  Sum of centres and spreads (  3.294542,  3.294541, -3.294541 )     5.46271180
 
     40    -0.644E-07     0.0001638641        5.4627144097       0.30  <-- CONV
        O_D=      0.0000000 O_OD=      0.0074433 O_TOT=      5.4627144 <-- SPRD
 Delta: O_D= -0.5166777E-08 O_OD= -0.5919112E-07 O_TOT= -0.6435790E-07 <-- DLTA
 ------------------------------------------------------------------------------
 Cycle:     41
  WF centre and spread    1  (  0.000000, -0.000000, -3.294541 )     1.82076949
  WF centre and spread    2  (  3.294542, -0.000000,  0.000000 )     1.82089421
  WF centre and spread    3  (  0.000001,  3.294541,  0.000000 )     1.82104806
  Sum of centres and spreads (  3.294542,  3.294541, -3.294541 )     5.46271176
 
     41    -0.435E-07     0.0001379845        5.4627143662       0.31  <-- CONV
        O_D=      0.0000000 O_OD=      0.0074433 O_TOT=      5.4627144 <-- SPRD
 Delta: O_D= -0.2337503E-08 O_OD= -0.4114576E-07 O_TOT= -0.4348326E-07 <-- DLTA
 ------------------------------------------------------------------------------
 Cycle:     42
  WF centre and spread    1  (  0.000000, -0.000000, -3.294541 )     1.82076947
  WF centre and spread    2  (  3.294542, -0.000000,  0.000000 )     1.82089420
  WF centre and spread    3  (  0.000001,  3.294541,  0.000000 )     1.82104806
  Sum of centres and spreads (  3.294542,  3.294541, -3.294541 )     5.46271173
 
     42    -0.310E-07     0.0001075563        5.4627143352       0.31  <-- CONV
        O_D=      0.0000000 O_OD=      0.0074433 O_TOT=      5.4627143 <-- SPRD
 Delta: O_D=  0.6673339E-08 O_OD= -0.3770050E-07 O_TOT= -0.3102716E-07 <-- DLTA
 ------------------------------------------------------------------------------
 Cycle:     43
  WF centre and spread    1  (  0.000000, -0.000000, -3.294541 )     1.82076946
  WF centre and spread    2  (  3.294542, -0.000000,  0.000000 )     1.82089419
  WF centre and spread    3  (  0.000001,  3.294541,  0.000000 )     1.82104805
  Sum of centres and spreads (  3.294542,  3.294541, -3.294541 )     5.46271170
 
     43    -0.320E-07     0.0001608287        5.4627143032       0.32  <-- CONV
        O_D=      0.0000000 O_OD=      0.0074432 O_TOT=      5.4627143 <-- SPRD
 Delta: O_D= -0.7372528E-08 O_OD= -0.2461207E-07 O_TOT= -0.3198460E-07 <-- DLTA
 ------------------------------------------------------------------------------
 Cycle:     44
  WF centre and spread    1  (  0.000000, -0.000000, -3.294541 )     1.82076944
  WF centre and spread    2  (  3.294542, -0.000000,  0.000000 )     1.82089418
  WF centre and spread    3  (  0.000001,  3.294541,  0.000000 )     1.82104804
  Sum of centres and spreads (  3.294542,  3.294541, -3.294541 )     5.46271166
 
     44    -0.368E-07     0.0001073826        5.4627142664       0.33  <-- CONV
        O_D=      0.0000000 O_OD=      0.0074432 O_TOT=      5.4627143 <-- SPRD
 Delta: O_D= -0.4160710E-09 O_OD= -0.3638698E-07 O_TOT= -0.3680305E-07 <-- DLTA
 ------------------------------------------------------------------------------
 Cycle:     45
  WF centre and spread    1  (  0.000000, -0.000000, -3.294541 )     1.82076940
  WF centre and spread    2  (  3.294542, -0.000000,  0.000000 )     1.82089418
  WF centre and spread    3  (  0.000001,  3.294541,  0.000000 )     1.82104802
  Sum of centres and spreads (  3.294542,  3.294541, -3.294541 )     5.46271160
 
     45    -0.613E-07     0.0001175205        5.4627142051       0.33  <-- CONV
        O_D=      0.0000000 O_OD=      0.0074431 O_TOT=      5.4627142 <-- SPRD
 Delta: O_D=  0.5636329E-08 O_OD= -0.6691411E-07 O_TOT= -0.6127779E-07 <-- DLTA
 ------------------------------------------------------------------------------
 Cycle:     46
  WF centre and spread    1  (  0.000000, -0.000000, -3.294541 )     1.82076932
  WF centre and spread    2  (  3.294542, -0.000000,  0.000000 )     1.82089419
  WF centre and spread    3  (  0.000001,  3.294541,  0.000000 )     1.82104800
  Sum of centres and spreads (  3.294542,  3.294541, -3.294541 )     5.46271151
 
     46    -0.907E-07     0.0001596984        5.4627141145       0.34  <-- CONV
        O_D=      0.0000000 O_OD=      0.0074430 O_TOT=      5.4627141 <-- SPRD
 Delta: O_D=  0.1438549E-07 O_OD= -0.1050433E-06 O_TOT= -0.9065778E-07 <-- DLTA
 ------------------------------------------------------------------------------
 Cycle:     47
  WF centre and spread    1  (  0.000000, -0.000000, -3.294541 )     1.82076922
  WF centre and spread    2  (  3.294541, -0.000000,  0.000000 )     1.82089419
  WF centre and spread    3  (  0.000001,  3.294541,  0.000000 )     1.82104798
  Sum of centres and spreads (  3.294542,  3.294541, -3.294541 )     5.46271139
 
     47    -0.122E-06     0.0001916160        5.4627139926       0.35  <-- CONV
        O_D=      0.0000000 O_OD=      0.0074429 O_TOT=      5.4627140 <-- SPRD
 Delta: O_D=  0.1762761E-07 O_OD= -0.1394425E-06 O_TOT= -0.1218149E-06 <-- DLTA
 ------------------------------------------------------------------------------
 Cycle:     48
  WF centre and spread    1  (  0.000000,  0.000000, -3.294541 )     1.82076910
  WF centre and spread    2  (  3.294541, -0.000000,  0.000000 )     1.82089417
  WF centre and spread    3  (  0.000001,  3.294541,  0.000000 )     1.82104797
  Sum of centres and spreads (  3.294542,  3.294541, -3.294541 )     5.46271124
 
     48    -0.150E-06     0.0002199330        5.4627138427       0.36  <-- CONV
        O_D=      0.0000001 O_OD=      0.0074427 O_TOT=      5.4627138 <-- SPRD
 Delta: O_D=  0.3522638E-07 O_OD= -0.1851907E-06 O_TOT= -0.1499643E-06 <-- DLTA
 ------------------------------------------------------------------------------
 Cycle:     49
  WF centre and spread    1  (  0.000000, -0.000000, -3.294541 )     1.82076907
  WF centre and spread    2  (  3.294541, -0.000000,  0.000000 )     1.82089410
  WF centre and spread    3  (  0.000001,  3.294541,  0.000000 )     1.82104792
  Sum of centres and spreads (  3.294542,  3.294541, -3.294541 )     5.46271109
 
     49    -0.144E-06     0.0003166930        5.4627136986       0.36  <-- CONV
        O_D=      0.0000000 O_OD=      0.0074426 O_TOT=      5.4627137 <-- SPRD
 Delta: O_D= -0.3564516E-07 O_OD= -0.1083958E-06 O_TOT= -0.1440409E-06 <-- DLTA
 ------------------------------------------------------------------------------
 Cycle:     50
  WF centre and spread    1  (  0.000000, -0.000000, -3.294541 )     1.82076906
  WF centre and spread    2  (  3.294542, -0.000000,  0.000000 )     1.82089402
  WF centre and spread    3  (  0.000001,  3.294541,  0.000000 )     1.82104788
  Sum of centres and spreads (  3.294542,  3.294541, -3.294541 )     5.46271096
 
     50    -0.134E-06     0.0002248130        5.4627135651       0.37  <-- CONV
        O_D=      0.0000000 O_OD=      0.0074425 O_TOT=      5.4627136 <-- SPRD
 Delta: O_D= -0.1553620E-07 O_OD= -0.1179901E-06 O_TOT= -0.1335263E-06 <-- DLTA
 ------------------------------------------------------------------------------
 Cycle:     51
  WF centre and spread    1  (  0.000000, -0.000000, -3.294541 )     1.82076906
  WF centre and spread    2  (  3.294542, -0.000000,  0.000000 )     1.82089395
  WF centre and spread    3  (  0.000001,  3.294541,  0.000000 )     1.82104785
  Sum of centres and spreads (  3.294542,  3.294541, -3.294541 )     5.46271086
 
     51    -0.103E-06     0.0002148118        5.4627134620       0.38  <-- CONV
        O_D=      0.0000000 O_OD=      0.0074424 O_TOT=      5.4627135 <-- SPRD
 Delta: O_D= -0.1377598E-07 O_OD= -0.8931174E-07 O_TOT= -0.1030877E-06 <-- DLTA
 ------------------------------------------------------------------------------
 Cycle:     52
  WF centre and spread    1  (  0.000000, -0.000000, -3.294541 )     1.82076905
  WF centre and spread    2  (  3.294542, -0.000000,  0.000000 )     1.82089391
  WF centre and spread    3  (  0.000001,  3.294541,  0.000000 )     1.82104784
  Sum of centres and spreads (  3.294542,  3.294541, -3.294541 )     5.46271080
 
     52    -0.587E-07     0.0001693179        5.4627134034       0.38  <-- CONV
        O_D=      0.0000000 O_OD=      0.0074423 O_TOT=      5.4627134 <-- SPRD
 Delta: O_D= -0.6082463E-08 O_OD= -0.5257648E-07 O_TOT= -0.5865894E-07 <-- DLTA
 ------------------------------------------------------------------------------
 Cycle:     53
  WF centre and spread    1  (  0.000000, -0.000000, -3.294541 )     1.82076904
  WF centre and spread    2  (  3.294542, -0.000000,  0.000000 )     1.82089389
  WF centre and spread    3  (  0.000001,  3.294541,  0.000000 )     1.82104784
  Sum of centres and spreads (  3.294542,  3.294541, -3.294541 )     5.46271076
 
     53    -0.383E-07     0.0001245947        5.4627133651       0.39  <-- CONV
        O_D=      0.0000000 O_OD=      0.0074423 O_TOT=      5.4627134 <-- SPRD
 Delta: O_D= -0.6426576E-09 O_OD= -0.3763426E-07 O_TOT= -0.3827692E-07 <-- DLTA
 ------------------------------------------------------------------------------
 Cycle:     54
  WF centre and spread    1  (  0.000000, -0.000000, -3.294541 )     1.82076902
  WF centre and spread    2  (  3.294542, -0.000000,  0.000000 )     1.82089387
  WF centre and spread    3  (  0.000001,  3.294541,  0.000000 )     1.82104783
  Sum of centres and spreads (  3.294542,  3.294541, -3.294541 )     5.46271073
 
     54    -0.341E-07     0.0001084554        5.4627133310       0.40  <-- CONV
        O_D=      0.0000000 O_OD=      0.0074422 O_TOT=      5.4627133 <-- SPRD
 Delta: O_D=  0.8391256E-08 O_OD= -0.4246312E-07 O_TOT= -0.3407186E-07 <-- DLTA
 ------------------------------------------------------------------------------
 Cycle:     55
  WF centre and spread    1  (  0.000000, -0.000000, -3.294541 )     1.82076901
  WF centre and spread    2  (  3.294542, -0.000000,  0.000000 )     1.82089386
  WF centre and spread    3  (  0.000001,  3.294541,  0.000000 )     1.82104782
  Sum of centres and spreads (  3.294542,  3.294541, -3.294541 )     5.46271069
 
     55    -0.337E-07     0.0001692204        5.4627132973       0.41  <-- CONV
        O_D=      0.0000000 O_OD=      0.0074422 O_TOT=      5.4627133 <-- SPRD
 Delta: O_D= -0.8960171E-08 O_OD= -0.2473574E-07 O_TOT= -0.3369591E-07 <-- DLTA
 ------------------------------------------------------------------------------
 Cycle:     56
  WF centre and spread    1  (  0.000000, -0.000000, -3.294541 )     1.82076899
  WF centre and spread    2  (  3.294542, -0.000000,  0.000000 )     1.82089386
  WF centre and spread    3  (  0.000001,  3.294541,  0.000000 )     1.82104781
  Sum of centres and spreads (  3.294542,  3.294541, -3.294541 )     5.46271066
 
     56    -0.359E-07     0.0001074832        5.4627132614       0.41  <-- CONV
        O_D=      0.0000000 O_OD=      0.0074422 O_TOT=      5.4627133 <-- SPRD
 Delta: O_D= -0.3809224E-09 O_OD= -0.3553205E-07 O_TOT= -0.3591297E-07 <-- DLTA
 ------------------------------------------------------------------------------
 Cycle:     57
  WF centre and spread    1  (  0.000000, -0.000000, -3.294541 )     1.82076895
  WF centre and spread    2  (  3.294542, -0.000000,  0.000000 )     1.82089386
  WF centre and spread    3  (  0.000001,  3.294541,  0.000000 )     1.82104780
  Sum of centres and spreads (  3.294542,  3.294541, -3.294541 )     5.46271060
 
     57    -0.556E-07     0.0001175746        5.4627132058       0.42  <-- CONV
        O_D=      0.0000000 O_OD=      0.0074421 O_TOT=      5.4627132 <-- SPRD
 Delta: O_D=  0.6908721E-08 O_OD= -0.6247459E-07 O_TOT= -0.5556587E-07 <-- DLTA
 ------------------------------------------------------------------------------
 Cycle:     58
  WF centre and spread    1  (  0.000000, -0.000000, -3.294541 )     1.82076886
  WF centre and spread    2  (  3.294542, -0.000000,  0.000000 )     1.82089386
  WF centre and spread    3  (  0.000001,  3.294541,  0.000000 )     1.82104778
  Sum of centres and spreads (  3.294542,  3.294541, -3.294541 )     5.46271050
 
     58    -0.100E-06     0.0001629724        5.4627131055       0.43  <-- CONV
        O_D=      0.0000000 O_OD=      0.0074420 O_TOT=      5.4627131 <-- SPRD
 Delta: O_D=  0.1808167E-07 O_OD= -0.1184190E-06 O_TOT= -0.1003374E-06 <-- DLTA
 ------------------------------------------------------------------------------
 Cycle:     59
  WF centre and spread    1  (  0.000000, -0.000000, -3.294541 )     1.82076874
  WF centre and spread    2  (  3.294541, -0.000000,  0.000000 )     1.82089387
  WF centre and spread    3  (  0.000001,  3.294541,  0.000000 )     1.82104776
  Sum of centres and spreads (  3.294542,  3.294541, -3.294541 )     5.46271037
 
     59    -0.134E-06     0.0002187085        5.4627129713       0.43  <-- CONV
        O_D=      0.0000000 O_OD=      0.0074419 O_TOT=      5.4627130 <-- SPRD
 Delta: O_D=  0.1514610E-07 O_OD= -0.1493352E-06 O_TOT= -0.1341891E-06 <-- DLTA
 ------------------------------------------------------------------------------
 Cycle:     60
  WF centre and spread    1  (  0.000000,  0.000000, -3.294541 )     1.82076863
  WF centre and spread    2  (  3.294541, -0.000000,  0.000000 )     1.82089385
  WF centre and spread    3  (  0.000001,  3.294541,  0.000000 )     1.82104774
  Sum of centres and spreads (  3.294542,  3.294541, -3.294541 )     5.46271022
 
     60    -0.145E-06     0.0002247342        5.4627128260       0.44  <-- CONV
        O_D=      0.0000001 O_OD=      0.0074417 O_TOT=      5.4627128 <-- SPRD
 Delta: O_D=  0.3172116E-07 O_OD= -0.1770397E-06 O_TOT= -0.1453185E-06 <-- DLTA
 ------------------------------------------------------------------------------
 Cycle:     61
  WF centre and spread    1  (  0.000000, -0.000000, -3.294541 )     1.82076860
  WF centre and spread    2  (  3.294541, -0.000000,  0.000000 )     1.82089378
  WF centre and spread    3  (  0.000001,  3.294541,  0.000000 )     1.82104769
  Sum of centres and spreads (  3.294542,  3.294541, -3.294541 )     5.46271007
 
     61    -0.148E-06     0.0003008556        5.4627126775       0.45  <-- CONV
        O_D=      0.0000000 O_OD=      0.0074416 O_TOT=      5.4627127 <-- SPRD
 Delta: O_D= -0.3496678E-07 O_OD= -0.1134888E-06 O_TOT= -0.1484556E-06 <-- DLTA
 ------------------------------------------------------------------------------
 Cycle:     62
  WF centre and spread    1  (  0.000000, -0.000000, -3.294541 )     1.82076859
  WF centre and spread    2  (  3.294542, -0.000000,  0.000000 )     1.82089368
  WF centre and spread    3  (  0.000001,  3.294541,  0.000000 )     1.82104765
  Sum of centres and spreads (  3.294542,  3.294541, -3.294541 )     5.46270992
 
     62    -0.150E-06     0.0002349036        5.4627125277       0.45  <-- CONV
        O_D=      0.0000000 O_OD=      0.0074414 O_TOT=      5.4627125 <-- SPRD
 Delta: O_D= -0.1522507E-07 O_OD= -0.1346573E-06 O_TOT= -0.1498824E-06 <-- DLTA
 ------------------------------------------------------------------------------
 Cycle:     63
  WF centre and spread    1  (  0.000000, -0.000000, -3.294541 )     1.82076859
  WF centre and spread    2  (  3.294542, -0.000000,  0.000000 )     1.82089360
  WF centre and spread    3  (  0.000001,  3.294541,  0.000000 )     1.82104762
  Sum of centres and spreads (  3.294542,  3.294541, -3.294541 )     5.46270981
 
     63    -0.111E-06     0.0002327946        5.4627124170       0.46  <-- CONV
        O_D=      0.0000000 O_OD=      0.0074413 O_TOT=      5.4627124 <-- SPRD
 Delta: O_D= -0.1569176E-07 O_OD= -0.9496370E-07 O_TOT= -0.1106555E-06 <-- DLTA
 ------------------------------------------------------------------------------
 Cycle:     64
  WF centre and spread    1  (  0.000000, -0.000000, -3.294541 )     1.82076858
  WF centre and spread    2  (  3.294542, -0.000000,  0.000000 )     1.82089357
  WF centre and spread    3  (  0.000001,  3.294541,  0.000000 )     1.82104761
  Sum of centres and spreads (  3.294542,  3.294541, -3.294541 )     5.46270976
 
     64    -0.539E-07     0.0001623046        5.4627123631       0.47  <-- CONV
        O_D=      0.0000000 O_OD=      0.0074413 O_TOT=      5.4627124 <-- SPRD
 Delta: O_D= -0.5889354E-08 O_OD= -0.4804901E-07 O_TOT= -0.5393837E-07 <-- DLTA
 ------------------------------------------------------------------------------
 Cycle:     65
  WF centre and spread    1  (  0.000000, -0.000000, -3.294541 )     1.82076857
  WF centre and spread    2  (  3.294542, -0.000000,  0.000000 )     1.82089355
  WF centre and spread    3  (  0.000001,  3.294541,  0.000000 )     1.82104760
  Sum of centres and spreads (  3.294542,  3.294541, -3.294541 )     5.46270972
 
     65    -0.366E-07     0.0001196822        5.4627123265       0.48  <-- CONV
        O_D=      0.0000000 O_OD=      0.0074413 O_TOT=      5.4627123 <-- SPRD
 Delta: O_D= -0.6266447E-09 O_OD= -0.3595892E-07 O_TOT= -0.3658556E-07 <-- DLTA
 ------------------------------------------------------------------------------
 Cycle:     66
  WF centre and spread    1  (  0.000000, -0.000000, -3.294541 )     1.82076855
  WF centre and spread    2  (  3.294542, -0.000000,  0.000000 )     1.82089354
  WF centre and spread    3  (  0.000001,  3.294541,  0.000000 )     1.82104760
  Sum of centres and spreads (  3.294542,  3.294541, -3.294541 )     5.46270968
 
     66    -0.384E-07     0.0000986040        5.4627122881       0.48  <-- CONV
        O_D=      0.0000000 O_OD=      0.0074412 O_TOT=      5.4627123 <-- SPRD
 Delta: O_D=  0.1214568E-07 O_OD= -0.5052515E-07 O_TOT= -0.3837946E-07 <-- DLTA
 ------------------------------------------------------------------------------
 Cycle:     67
  WF centre and spread    1  (  0.000000, -0.000000, -3.294541 )     1.82076853
  WF centre and spread    2  (  3.294542, -0.000000,  0.000000 )     1.82089353
  WF centre and spread    3  (  0.000001,  3.294541,  0.000000 )     1.82104759
  Sum of centres and spreads (  3.294542,  3.294541, -3.294541 )     5.46270965
 
     67    -0.370E-07     0.0001888796        5.4627122511       0.49  <-- CONV
        O_D=      0.0000000 O_OD=      0.0074412 O_TOT=      5.4627123 <-- SPRD
 Delta: O_D= -0.1221965E-07 O_OD= -0.2482561E-07 O_TOT= -0.3704527E-07 <-- DLTA
 ------------------------------------------------------------------------------
 Cycle:     68
  WF centre and spread    1  (  0.000000, -0.000000, -3.294541 )     1.82076852
  WF centre and spread    2  (  3.294542, -0.000000,  0.000000 )     1.82089352
  WF centre and spread    3  (  0.000001,  3.294541,  0.000000 )     1.82104758
  Sum of centres and spreads (  3.294542,  3.294541, -3.294541 )     5.46270961
 
     68    -0.316E-07     0.0001012661        5.4627122195       0.50  <-- CONV
        O_D=      0.0000000 O_OD=      0.0074411 O_TOT=      5.4627122 <-- SPRD
 Delta: O_D=  0.1065104E-08 O_OD= -0.3262352E-07 O_TOT= -0.3155842E-07 <-- DLTA
 ------------------------------------------------------------------------------
 Cycle:     69
  WF centre and spread    1  (  0.000000, -0.000000, -3.294541 )     1.82076848
  WF centre and spread    2  (  3.294542, -0.000000,  0.000000 )     1.82089352
  WF centre and spread    3  (  0.000001,  3.294541,  0.000000 )     1.82104756
  Sum of centres and spreads (  3.294542,  3.294541, -3.294541 )     5.46270956
 
     69    -0.565E-07     0.0001232482        5.4627121630       0.50  <-- CONV
        O_D=      0.0000000 O_OD=      0.0074411 O_TOT=      5.4627122 <-- SPRD
 Delta: O_D=  0.9204442E-08 O_OD= -0.6567206E-07 O_TOT= -0.5646761E-07 <-- DLTA
 ------------------------------------------------------------------------------
 Cycle:     70
  WF centre and spread    1  (  0.000000, -0.000000, -3.294541 )     1.82076839
  WF centre and spread    2  (  3.294542, -0.000000,  0.000000 )     1.82089352
  WF centre and spread    3  (  0.000001,  3.294541,  0.000000 )     1.82104754
  Sum of centres and spreads (  3.294542,  3.294541, -3.294541 )     5.46270945
 
     70    -0.108E-06     0.0001718894        5.4627120554       0.51  <-- CONV
        O_D=      0.0000000 O_OD=      0.0074410 O_TOT=      5.4627121 <-- SPRD
 Delta: O_D=  0.1550699E-07 O_OD= -0.1231293E-06 O_TOT= -0.1076223E-06 <-- DLTA
 ------------------------------------------------------------------------------
 Cycle:     71
  WF centre and spread    1  (  0.000000, -0.000000, -3.294541 )     1.82076825
  WF centre and spread    2  (  3.294542, -0.000000,  0.000000 )     1.82089352
  WF centre and spread    3  (  0.000001,  3.294541,  0.000000 )     1.82104752
  Sum of centres and spreads (  3.294542,  3.294541, -3.294541 )     5.46270928
 
     71    -0.168E-06     0.0002229683        5.4627118876       0.52  <-- CONV
        O_D=      0.0000000 O_OD=      0.0074408 O_TOT=      5.4627119 <-- SPRD
 Delta: O_D=  0.1633274E-07 O_OD= -0.1841276E-06 O_TOT= -0.1677948E-06 <-- DLTA
 ------------------------------------------------------------------------------
 Cycle:     72
  WF centre and spread    1  (  0.000000, -0.000000, -3.294541 )     1.82076811
  WF centre and spread    2  (  3.294541, -0.000000,  0.000000 )     1.82089349
  WF centre and spread    3  (  0.000001,  3.294541,  0.000000 )     1.82104750
  Sum of centres and spreads (  3.294542,  3.294541, -3.294541 )     5.46270911
 
     72    -0.177E-06     0.0002600725        5.4627117106       0.53  <-- CONV
        O_D=      0.0000001 O_OD=      0.0074406 O_TOT=      5.4627117 <-- SPRD
 Delta: O_D=  0.3418972E-07 O_OD= -0.2112479E-06 O_TOT= -0.1770582E-06 <-- DLTA
 ------------------------------------------------------------------------------
 Cycle:     73
  WF centre and spread    1  (  0.000000, -0.000000, -3.294541 )     1.82076809
  WF centre and spread    2  (  3.294542, -0.000000,  0.000000 )     1.82089341
  WF centre and spread    3  (  0.000001,  3.294541,  0.000000 )     1.82104744
  Sum of centres and spreads (  3.294542,  3.294541, -3.294541 )     5.46270893
 
     73    -0.173E-06     0.0002871089        5.4627115373       0.53  <-- CONV
        O_D=      0.0000000 O_OD=      0.0074404 O_TOT=      5.4627115 <-- SPRD
 Delta: O_D= -0.3817055E-07 O_OD= -0.1350456E-06 O_TOT= -0.1732161E-06 <-- DLTA
 ------------------------------------------------------------------------------
 Cycle:     74
  WF centre and spread    1  (  0.000000, -0.000000, -3.294541 )     1.82076808
  WF centre and spread    2  (  3.294542, -0.000000,  0.000000 )     1.82089331
  WF centre and spread    3  (  0.000001,  3.294541,  0.000000 )     1.82104739
  Sum of centres and spreads (  3.294542,  3.294541, -3.294541 )     5.46270879
 
     74    -0.147E-06     0.0002569639        5.4627113905       0.54  <-- CONV
        O_D=      0.0000000 O_OD=      0.0074403 O_TOT=      5.4627114 <-- SPRD
 Delta: O_D= -0.1600973E-07 O_OD= -0.1307896E-06 O_TOT= -0.1467993E-06 <-- DLTA
 ------------------------------------------------------------------------------
 Cycle:     75
  WF centre and spread    1  (  0.000000, -0.000000, -3.294541 )     1.82076808
  WF centre and spread    2  (  3.294542, -0.000000,  0.000000 )     1.82089324
  WF centre and spread    3  (  0.000001,  3.294541,  0.000000 )     1.82104736
  Sum of centres and spreads (  3.294542,  3.294541, -3.294541 )     5.46270868
 
     75    -0.107E-06     0.0002165716        5.4627112831       0.55  <-- CONV
        O_D=      0.0000000 O_OD=      0.0074402 O_TOT=      5.4627113 <-- SPRD
 Delta: O_D= -0.1358366E-07 O_OD= -0.9389803E-07 O_TOT= -0.1074817E-06 <-- DLTA
 ------------------------------------------------------------------------------
 Cycle:     76
  WF centre and spread    1  (  0.000000, -0.000000, -3.294541 )     1.82076807
  WF centre and spread    2  (  3.294542, -0.000000,  0.000000 )     1.82089320
  WF centre and spread    3  (  0.000001,  3.294541,  0.000000 )     1.82104735
  Sum of centres and spreads (  3.294542,  3.294541, -3.294541 )     5.46270861
 
     76    -0.636E-07     0.0001672627        5.4627112194       0.55  <-- CONV
        O_D=      0.0000000 O_OD=      0.0074401 O_TOT=      5.4627112 <-- SPRD
 Delta: O_D= -0.7244246E-08 O_OD= -0.5637442E-07 O_TOT= -0.6361867E-07 <-- DLTA
 ------------------------------------------------------------------------------
 Cycle:     77
  WF centre and spread    1  (  0.000000, -0.000000, -3.294541 )     1.82076806
  WF centre and spread    2  (  3.294542, -0.000000,  0.000000 )     1.82089318
  WF centre and spread    3  (  0.000001,  3.294541,  0.000000 )     1.82104735
  Sum of centres and spreads (  3.294542,  3.294541, -3.294541 )     5.46270858
 
     77    -0.309E-07     0.0001267319        5.4627111885       0.56  <-- CONV
        O_D=      0.0000000 O_OD=      0.0074401 O_TOT=      5.4627112 <-- SPRD
 Delta: O_D= -0.9172746E-09 O_OD= -0.2999060E-07 O_TOT= -0.3090787E-07 <-- DLTA
 ------------------------------------------------------------------------------
 Cycle:     78
  WF centre and spread    1  (  0.000000, -0.000000, -3.294541 )     1.82076804
  WF centre and spread    2  (  3.294542, -0.000000,  0.000000 )     1.82089317
  WF centre and spread    3  (  0.000001,  3.294541,  0.000000 )     1.82104734
  Sum of centres and spreads (  3.294542,  3.294541, -3.294541 )     5.46270854
 
     78    -0.389E-07     0.0001002164        5.4627111497       0.57  <-- CONV
        O_D=      0.0000000 O_OD=      0.0074401 O_TOT=      5.4627111 <-- SPRD
 Delta: O_D=  0.8797752E-08 O_OD= -0.4767540E-07 O_TOT= -0.3887765E-07 <-- DLTA
 ------------------------------------------------------------------------------
 Cycle:     79
  WF centre and spread    1  (  0.000000, -0.000000, -3.294541 )     1.82076802
  WF centre and spread    2  (  3.294542, -0.000000,  0.000000 )     1.82089316
  WF centre and spread    3  (  0.000001,  3.294541,  0.000000 )     1.82104733
  Sum of centres and spreads (  3.294542,  3.294541, -3.294541 )     5.46270851
 
     79    -0.323E-07     0.0001712407        5.4627111173       0.57  <-- CONV
        O_D=      0.0000000 O_OD=      0.0074400 O_TOT=      5.4627111 <-- SPRD
 Delta: O_D= -0.9359291E-08 O_OD= -0.2297286E-07 O_TOT= -0.3233215E-07 <-- DLTA
 ------------------------------------------------------------------------------
 Cycle:     80
  WF centre and spread    1  (  0.000000, -0.000000, -3.294541 )     1.82076801
  WF centre and spread    2  (  3.294542, -0.000000,  0.000000 )     1.82089315
  WF centre and spread    3  (  0.000001,  3.294541,  0.000000 )     1.82104732
  Sum of centres and spreads (  3.294542,  3.294541, -3.294541 )     5.46270848
 
     80    -0.326E-07     0.0000988759        5.4627110847       0.58  <-- CONV
        O_D=      0.0000000 O_OD=      0.0074400 O_TOT=      5.4627111 <-- SPRD
 Delta: O_D=  0.2988394E-08 O_OD= -0.3558420E-07 O_TOT= -0.3259581E-07 <-- DLTA
 ------------------------------------------------------------------------------
 Cycle:     81
  WF centre and spread    1  (  0.000000, -0.000000, -3.294541 )     1.82076796
  WF centre and spread    2  (  3.294542, -0.000000,  0.000000 )     1.82089315
  WF centre and spread    3  (  0.000001,  3.294541,  0.000000 )     1.82104731
  Sum of centres and spreads (  3.294542,  3.294541, -3.294541 )     5.46270841
 
     81    -0.657E-07     0.0001357731        5.4627110191       0.59  <-- CONV
        O_D=      0.0000000 O_OD=      0.0074399 O_TOT=      5.4627110 <-- SPRD
 Delta: O_D=  0.7395473E-08 O_OD= -0.7306049E-07 O_TOT= -0.6566502E-07 <-- DLTA
 ------------------------------------------------------------------------------
 Cycle:     82
  WF centre and spread    1  (  0.000000, -0.000000, -3.294541 )     1.82076786
  WF centre and spread    2  (  3.294542, -0.000000,  0.000000 )     1.82089316
  WF centre and spread    3  (  0.000001,  3.294541,  0.000000 )     1.82104729
  Sum of centres and spreads (  3.294542,  3.294541, -3.294541 )     5.46270831
 
     82    -0.106E-06     0.0001696142        5.4627109127       0.60  <-- CONV
        O_D=      0.0000000 O_OD=      0.0074398 O_TOT=      5.4627109 <-- SPRD
 Delta: O_D=  0.1133754E-07 O_OD= -0.1177197E-06 O_TOT= -0.1063822E-06 <-- DLTA
 ------------------------------------------------------------------------------
 Cycle:     83
  WF centre and spread    1  (  0.000000, -0.000000, -3.294541 )     1.82076775
  WF centre and spread    2  (  3.294542, -0.000000,  0.000000 )     1.82089315
  WF centre and spread    3  (  0.000001,  3.294541,  0.000000 )     1.82104727
  Sum of centres and spreads (  3.294542,  3.294541, -3.294541 )     5.46270816
 
     83    -0.143E-06     0.0002088666        5.4627107692       0.60  <-- CONV
        O_D=      0.0000000 O_OD=      0.0074397 O_TOT=      5.4627108 <-- SPRD
 Delta: O_D=  0.1411587E-07 O_OD= -0.1576139E-06 O_TOT= -0.1434980E-06 <-- DLTA
 ------------------------------------------------------------------------------
 Cycle:     84
  WF centre and spread    1  (  0.000000, -0.000000, -3.294541 )     1.82076762
  WF centre and spread    2  (  3.294542, -0.000000,  0.000000 )     1.82089312
  WF centre and spread    3  (  0.000001,  3.294541,  0.000000 )     1.82104725
  Sum of centres and spreads (  3.294542,  3.294541, -3.294541 )     5.46270799
 
     84    -0.178E-06     0.0002468148        5.4627105915       0.61  <-- CONV
        O_D=      0.0000001 O_OD=      0.0074394 O_TOT=      5.4627106 <-- SPRD
 Delta: O_D=  0.3792312E-07 O_OD= -0.2155632E-06 O_TOT= -0.1776400E-06 <-- DLTA
 ------------------------------------------------------------------------------
 Cycle:     85
  WF centre and spread    1  (  0.000000, -0.000000, -3.294541 )     1.82076759
  WF centre and spread    2  (  3.294542, -0.000000,  0.000000 )     1.82089304
  WF centre and spread    3  (  0.000001,  3.294541,  0.000000 )     1.82104719
  Sum of centres and spreads (  3.294542,  3.294541, -3.294541 )     5.46270781
 
     85    -0.172E-06     0.0002981795        5.4627104193       0.62  <-- CONV
        O_D=      0.0000000 O_OD=      0.0074393 O_TOT=      5.4627104 <-- SPRD
 Delta: O_D= -0.4163224E-07 O_OD= -0.1306377E-06 O_TOT= -0.1722700E-06 <-- DLTA
 ------------------------------------------------------------------------------
 Cycle:     86
  WF centre and spread    1  (  0.000000, -0.000000, -3.294541 )     1.82076758
  WF centre and spread    2  (  3.294542, -0.000000,  0.000000 )     1.82089296
  WF centre and spread    3  (  0.000001,  3.294541,  0.000000 )     1.82104715
  Sum of centres and spreads (  3.294542,  3.294541, -3.294541 )     5.46270769
 
     86    -0.126E-06     0.0002433731        5.4627102934       0.62  <-- CONV
        O_D=      0.0000000 O_OD=      0.0074392 O_TOT=      5.4627103 <-- SPRD
 Delta: O_D= -0.1392824E-07 O_OD= -0.1118983E-06 O_TOT= -0.1258266E-06 <-- DLTA
 ------------------------------------------------------------------------------
 Cycle:     87
  WF centre and spread    1  (  0.000000, -0.000000, -3.294541 )     1.82076758
  WF centre and spread    2  (  3.294542, -0.000000,  0.000000 )     1.82089289
  WF centre and spread    3  (  0.000001,  3.294541,  0.000000 )     1.82104712
  Sum of centres and spreads (  3.294542,  3.294541, -3.294541 )     5.46270759
 
     87    -0.102E-06     0.0001993281        5.4627101919       0.63  <-- CONV
        O_D=      0.0000000 O_OD=      0.0074391 O_TOT=      5.4627102 <-- SPRD
 Delta: O_D= -0.1052264E-07 O_OD= -0.9102751E-07 O_TOT= -0.1015502E-06 <-- DLTA
 ------------------------------------------------------------------------------
 Cycle:     88
  WF centre and spread    1  (  0.000000, -0.000000, -3.294541 )     1.82076757
  WF centre and spread    2  (  3.294542, -0.000000,  0.000000 )     1.82089284
  WF centre and spread    3  (  0.000001,  3.294541,  0.000000 )     1.82104711
  Sum of centres and spreads (  3.294542,  3.294541, -3.294541 )     5.46270752
 
     88    -0.703E-07     0.0001635074        5.4627101216       0.64  <-- CONV
        O_D=      0.0000000 O_OD=      0.0074390 O_TOT=      5.4627101 <-- SPRD
 Delta: O_D= -0.6873798E-08 O_OD= -0.6345654E-07 O_TOT= -0.7033034E-07 <-- DLTA
 ------------------------------------------------------------------------------
 Cycle:     89
  WF centre and spread    1  (  0.000000, -0.000000, -3.294541 )     1.82076756
  WF centre and spread    2  (  3.294542, -0.000000,  0.000000 )     1.82089282
  WF centre and spread    3  (  0.000001,  3.294541,  0.000000 )     1.82104710
  Sum of centres and spreads (  3.294542,  3.294541, -3.294541 )     5.46270748
 
     89    -0.338E-07     0.0001290358        5.4627100877       0.65  <-- CONV
        O_D=      0.0000000 O_OD=      0.0074390 O_TOT=      5.4627101 <-- SPRD
 Delta: O_D= -0.8038232E-09 O_OD= -0.3304399E-07 O_TOT= -0.3384781E-07 <-- DLTA
 ------------------------------------------------------------------------------
 Cycle:     90
  WF centre and spread    1  (  0.000000, -0.000000, -3.294541 )     1.82076756
  WF centre and spread    2  (  3.294542, -0.000000,  0.000000 )     1.82089282
  WF centre and spread    3  (  0.000001,  3.294541,  0.000000 )     1.82104710
  Sum of centres and spreads (  3.294542,  3.294541, -3.294541 )     5.46270748
 
     90    -0.260E-10     0.0000899251        5.4627100877       0.65  <-- CONV
        O_D=      0.0000000 O_OD=      0.0074390 O_TOT=      5.4627101 <-- SPRD
 Delta: O_D= -0.5304236E-12 O_OD= -0.2548219E-10 O_TOT= -0.2601386E-10 <-- DLTA
 ------------------------------------------------------------------------------
 Cycle:     91
  WF centre and spread    1  (  0.000000, -0.000000, -3.294541 )     1.82076754
  WF centre and spread    2  (  3.294542, -0.000000,  0.000000 )     1.82089282
  WF centre and spread    3  (  0.000001,  3.294541,  0.000000 )     1.82104709
  Sum of centres and spreads (  3.294542,  3.294541, -3.294541 )     5.46270745
 
     91    -0.329E-07     0.0000899223        5.4627100548       0.66  <-- CONV
        O_D=      0.0000000 O_OD=      0.0074390 O_TOT=      5.4627101 <-- SPRD
 Delta: O_D=  0.3996553E-09 O_OD= -0.3325274E-07 O_TOT= -0.3285309E-07 <-- DLTA
 ------------------------------------------------------------------------------
 Cycle:     92
  WF centre and spread    1  (  0.000000, -0.000000, -3.294541 )     1.82076750
  WF centre and spread    2  (  3.294542, -0.000000,  0.000000 )     1.82089282
  WF centre and spread    3  (  0.000001,  3.294541,  0.000000 )     1.82104707
  Sum of centres and spreads (  3.294542,  3.294541, -3.294541 )     5.46270739
 
     92    -0.593E-07     0.0001179814        5.4627099955       0.66  <-- CONV
        O_D=      0.0000000 O_OD=      0.0074389 O_TOT=      5.4627100 <-- SPRD
 Delta: O_D=  0.8373769E-08 O_OD= -0.6772120E-07 O_TOT= -0.5934744E-07 <-- DLTA
 ------------------------------------------------------------------------------
 Cycle:     93
  WF centre and spread    1  (  0.000000, -0.000000, -3.294541 )     1.82076742
  WF centre and spread    2  (  3.294542, -0.000000,  0.000000 )     1.82089283
  WF centre and spread    3  (  0.000001,  3.294541,  0.000000 )     1.82104706
  Sum of centres and spreads (  3.294542,  3.294541, -3.294541 )     5.46270730
 
     93    -0.879E-07     0.0001670288        5.4627099076       0.67  <-- CONV
        O_D=      0.0000000 O_OD=      0.0074388 O_TOT=      5.4627099 <-- SPRD
 Delta: O_D=  0.1134116E-07 O_OD= -0.9921097E-07 O_TOT= -0.8786981E-07 <-- DLTA
 ------------------------------------------------------------------------------
 Cycle:     94
  WF centre and spread    1  (  0.000000, -0.000000, -3.294541 )     1.82076731
  WF centre and spread    2  (  3.294542, -0.000000,  0.000000 )     1.82089283
  WF centre and spread    3  (  0.000001,  3.294541,  0.000000 )     1.82104704
  Sum of centres and spreads (  3.294542,  3.294541, -3.294541 )     5.46270719
 
     94    -0.116E-06     0.0001888104        5.4627097918       0.68  <-- CONV
        O_D=      0.0000000 O_OD=      0.0074387 O_TOT=      5.4627098 <-- SPRD
 Delta: O_D=  0.1631029E-07 O_OD= -0.1321390E-06 O_TOT= -0.1158287E-06 <-- DLTA
 ------------------------------------------------------------------------------
 Cycle:     95
  WF centre and spread    1  (  0.000000, -0.000000, -3.294541 )     1.82076717
  WF centre and spread    2  (  3.294542, -0.000000,  0.000000 )     1.82089281
  WF centre and spread    3  (  0.000001,  3.294541,  0.000000 )     1.82104703
  Sum of centres and spreads (  3.294542,  3.294541, -3.294541 )     5.46270702
 
     95    -0.171E-06     0.0002162603        5.4627096212       0.69  <-- CONV
        O_D=      0.0000001 O_OD=      0.0074385 O_TOT=      5.4627096 <-- SPRD
 Delta: O_D=  0.4809143E-07 O_OD= -0.2186658E-06 O_TOT= -0.1705744E-06 <-- DLTA
 ------------------------------------------------------------------------------
 Cycle:     96
  WF centre and spread    1  (  0.000000, -0.000000, -3.294541 )     1.82076658
  WF centre and spread    2  (  3.294542, -0.000000,  0.000000 )     1.82089260
  WF centre and spread    3  (  0.000001,  3.294541,  0.000000 )     1.82104700
  Sum of centres and spreads (  3.294542,  3.294541, -3.294541 )     5.46270618
 
     96    -0.841E-06     0.0002937309        5.4627087804       0.69  <-- CONV
        O_D=      0.0000006 O_OD=      0.0074371 O_TOT=      5.4627088 <-- SPRD
 Delta: O_D=  0.5369231E-06 O_OD= -0.1377713E-05 O_TOT= -0.8407900E-06 <-- DLTA
 ------------------------------------------------------------------------------
 Cycle:     97
  WF centre and spread    1  (  0.000000, -0.000000, -3.294541 )     1.82076638
  WF centre and spread    2  (  3.294542, -0.000000,  0.000000 )     1.82089230
  WF centre and spread    3  (  0.000001,  3.294541,  0.000000 )     1.82104668
  Sum of centres and spreads (  3.294542,  3.294541, -3.294541 )     5.46270537
 
[...]
  Sum of centres and spreads (  3.294542,  3.294541, -3.294541 )     5.46267707
 
    473    -0.322E-07     0.0001180245        5.4626796789       3.35  <-- CONV
        O_D=      0.0000000 O_OD=      0.0074086 O_TOT=      5.4626797 <-- SPRD
 Delta: O_D=  0.1344933E-08 O_OD= -0.3358316E-07 O_TOT= -0.3223823E-07 <-- DLTA
 ------------------------------------------------------------------------------
 Cycle:    474
  WF centre and spread    1  (  0.000000, -0.000000, -3.294541 )     1.82075384
  WF centre and spread    2  (  3.294542, -0.000000,  0.000000 )     1.82088301
  WF centre and spread    3  (  0.000001,  3.294541,  0.000000 )     1.82104020
  Sum of centres and spreads (  3.294542,  3.294541, -3.294541 )     5.46267705
 
    474    -0.213E-07     0.0001031251        5.4626796576       3.35  <-- CONV
        O_D=      0.0000000 O_OD=      0.0074086 O_TOT=      5.4626797 <-- SPRD
 Delta: O_D= -0.1916064E-08 O_OD= -0.1934531E-07 O_TOT= -0.2126137E-07 <-- DLTA
 ------------------------------------------------------------------------------
 Cycle:    475
  WF centre and spread    1  (  0.000000, -0.000000, -3.294541 )     1.82075367
  WF centre and spread    2  (  3.294542, -0.000000,  0.000000 )     1.82088293
  WF centre and spread    3  (  0.000001,  3.294541,  0.000000 )     1.82104014
  Sum of centres and spreads (  3.294542,  3.294541, -3.294541 )     5.46267673
 
    475    -0.318E-06     0.0001169917        5.4626793394       3.36  <-- CONV
        O_D=      0.0000001 O_OD=      0.0074082 O_TOT=      5.4626793 <-- SPRD
 Delta: O_D=  0.7883732E-07 O_OD= -0.3970716E-06 O_TOT= -0.3182343E-06 <-- DLTA
 ------------------------------------------------------------------------------
 Cycle:    476
  WF centre and spread    1  (  0.000000, -0.000000, -3.294541 )     1.82075364
  WF centre and spread    2  (  3.294542, -0.000000,  0.000000 )     1.82088288
  WF centre and spread    3  (  0.000001,  3.294541,  0.000000 )     1.82104010
  Sum of centres and spreads (  3.294542,  3.294541, -3.294541 )     5.46267662
 
    476    -0.118E-06     0.0002840859        5.4626792212       3.37  <-- CONV
        O_D=      0.0000000 O_OD=      0.0074082 O_TOT=      5.4626792 <-- SPRD
 Delta: O_D= -0.7864080E-07 O_OD= -0.3951618E-07 O_TOT= -0.1181570E-06 <-- DLTA
 ------------------------------------------------------------------------------
 Cycle:    477
  WF centre and spread    1  (  0.000000, -0.000000, -3.294541 )     1.82075364
  WF centre and spread    2  (  3.294542, -0.000000,  0.000000 )     1.82088287
  WF centre and spread    3  (  0.000001,  3.294541,  0.000000 )     1.82104009
  Sum of centres and spreads (  3.294542,  3.294541, -3.294541 )     5.46267660
 
    477    -0.195E-07     0.0000896993        5.4626792018       3.38  <-- CONV
        O_D=      0.0000000 O_OD=      0.0074081 O_TOT=      5.4626792 <-- SPRD
 Delta: O_D=  0.4397549E-08 O_OD= -0.2388908E-07 O_TOT= -0.1949153E-07 <-- DLTA
 ------------------------------------------------------------------------------
 Cycle:    478
  WF centre and spread    1  (  0.000000, -0.000000, -3.294541 )     1.82075363
  WF centre and spread    2  (  3.294542, -0.000000,  0.000000 )     1.82088283
  WF centre and spread    3  (  0.000001,  3.294541,  0.000000 )     1.82104008
  Sum of centres and spreads (  3.294542,  3.294541, -3.294541 )     5.46267654
 
    478    -0.548E-07     0.0001133883        5.4626791470       3.38  <-- CONV
        O_D=      0.0000000 O_OD=      0.0074081 O_TOT=      5.4626791 <-- SPRD
 Delta: O_D= -0.4024609E-08 O_OD= -0.5077067E-07 O_TOT= -0.5479528E-07 <-- DLTA
 ------------------------------------------------------------------------------
 Cycle:    479
  WF centre and spread    1  (  0.000000, -0.000000, -3.294541 )     1.82075354
  WF centre and spread    2  (  3.294542, -0.000000,  0.000000 )     1.82088270
  WF centre and spread    3  (  0.000001,  3.294541,  0.000000 )     1.82104005
  Sum of centres and spreads (  3.294542,  3.294541, -3.294541 )     5.46267629
 
    479    -0.257E-06     0.0001385245        5.4626788904       3.39  <-- CONV
        O_D=      0.0000000 O_OD=      0.0074078 O_TOT=      5.4626789 <-- SPRD
 Delta: O_D=  0.2984606E-07 O_OD= -0.2864135E-06 O_TOT= -0.2565674E-06 <-- DLTA
 ------------------------------------------------------------------------------
 Cycle:    480
  WF centre and spread    1  (  0.000000, -0.000000, -3.294541 )     1.82075344
  WF centre and spread    2  (  3.294542, -0.000000,  0.000000 )     1.82088263
  WF centre and spread    3  (  0.000001,  3.294541,  0.000000 )     1.82103998
  Sum of centres and spreads (  3.294542,  3.294541, -3.294541 )     5.46267605
 
    480    -0.239E-06     0.0004976798        5.4626786517       3.40  <-- CONV
        O_D=      0.0000000 O_OD=      0.0074076 O_TOT=      5.4626787 <-- SPRD
 Delta: O_D= -0.2101914E-07 O_OD= -0.2176444E-06 O_TOT= -0.2386635E-06 <-- DLTA
 ------------------------------------------------------------------------------
 Cycle:    481
  WF centre and spread    1  (  0.000000, -0.000000, -3.294541 )     1.82075340
  WF centre and spread    2  (  3.294542, -0.000000,  0.000000 )     1.82088263
  WF centre and spread    3  (  0.000001,  3.294541,  0.000000 )     1.82103996
  Sum of centres and spreads (  3.294542,  3.294541, -3.294541 )     5.46267599
 
    481    -0.534E-07     0.0001403483        5.4626785984       3.40  <-- CONV
        O_D=      0.0000000 O_OD=      0.0074075 O_TOT=      5.4626786 <-- SPRD
 Delta: O_D=  0.1402214E-08 O_OD= -0.5476232E-07 O_TOT= -0.5336011E-07 <-- DLTA
 ------------------------------------------------------------------------------
 Cycle:    482
  WF centre and spread    1  (  0.000000, -0.000000, -3.294541 )     1.82075335
  WF centre and spread    2  (  3.294542, -0.000000,  0.000000 )     1.82088264
  WF centre and spread    3  (  0.000001,  3.294541,  0.000000 )     1.82103995
  Sum of centres and spreads (  3.294542,  3.294541, -3.294541 )     5.46267594
 
    482    -0.551E-07     0.0001523086        5.4626785432       3.41  <-- CONV
        O_D=      0.0000000 O_OD=      0.0074075 O_TOT=      5.4626785 <-- SPRD
 Delta: O_D= -0.8606041E-08 O_OD= -0.4654340E-07 O_TOT= -0.5514944E-07 <-- DLTA
 ------------------------------------------------------------------------------
 Cycle:    483
  WF centre and spread    1  (  0.000000, -0.000000, -3.294541 )     1.82075329
  WF centre and spread    2  (  3.294542, -0.000000,  0.000000 )     1.82088265
  WF centre and spread    3  (  0.000001,  3.294541,  0.000000 )     1.82103993
  Sum of centres and spreads (  3.294542,  3.294541, -3.294541 )     5.46267587
 
    483    -0.669E-07     0.0001328635        5.4626784763       3.42  <-- CONV
        O_D=      0.0000000 O_OD=      0.0074074 O_TOT=      5.4626785 <-- SPRD
 Delta: O_D=  0.2697110E-08 O_OD= -0.6958203E-07 O_TOT= -0.6688492E-07 <-- DLTA
 ------------------------------------------------------------------------------
 Cycle:    484
  WF centre and spread    1  (  0.000000, -0.000000, -3.294541 )     1.82075324
  WF centre and spread    2  (  3.294542, -0.000000,  0.000000 )     1.82088265
  WF centre and spread    3  (  0.000001,  3.294541,  0.000000 )     1.82103992
  Sum of centres and spreads (  3.294542,  3.294541, -3.294541 )     5.46267581
 
    484    -0.584E-07     0.0001517831        5.4626784180       3.42  <-- CONV
        O_D=      0.0000000 O_OD=      0.0074073 O_TOT=      5.4626784 <-- SPRD
 Delta: O_D=  0.6327602E-08 O_OD= -0.6469048E-07 O_TOT= -0.5836288E-07 <-- DLTA
 ------------------------------------------------------------------------------
 Cycle:    485
  WF centre and spread    1  (  0.000000, -0.000000, -3.294541 )     1.82075320
  WF centre and spread    2  (  3.294542, -0.000000,  0.000000 )     1.82088265
  WF centre and spread    3  (  0.000001,  3.294541,  0.000000 )     1.82103991
  Sum of centres and spreads (  3.294542,  3.294541, -3.294541 )     5.46267576
 
    485    -0.571E-07     0.0001583071        5.4626783608       3.43  <-- CONV
        O_D=      0.0000000 O_OD=      0.0074073 O_TOT=      5.4626784 <-- SPRD
 Delta: O_D=  0.4115459E-08 O_OD= -0.6124287E-07 O_TOT= -0.5712741E-07 <-- DLTA
 ------------------------------------------------------------------------------
 Cycle:    486
  WF centre and spread    1  (  0.000000, -0.000000, -3.294541 )     1.82075319
  WF centre and spread    2  (  3.294542, -0.000000,  0.000000 )     1.82088262
  WF centre and spread    3  (  0.000001,  3.294541,  0.000000 )     1.82103989
  Sum of centres and spreads (  3.294542,  3.294541, -3.294541 )     5.46267570
 
    486    -0.526E-07     0.0001606480        5.4626783082       3.44  <-- CONV
        O_D=      0.0000000 O_OD=      0.0074072 O_TOT=      5.4626783 <-- SPRD
 Delta: O_D=  0.1937703E-08 O_OD= -0.5458731E-07 O_TOT= -0.5264961E-07 <-- DLTA
 ------------------------------------------------------------------------------
 Cycle:    487
  WF centre and spread    1  (  0.000000, -0.000000, -3.294541 )     1.82075318
  WF centre and spread    2  (  3.294542, -0.000000,  0.000000 )     1.82088257
  WF centre and spread    3  (  0.000001,  3.294541,  0.000000 )     1.82103988
  Sum of centres and spreads (  3.294542,  3.294541, -3.294541 )     5.46267563
 
    487    -0.725E-07     0.0001660621        5.4626782357       3.45  <-- CONV
        O_D=      0.0000000 O_OD=      0.0074072 O_TOT=      5.4626782 <-- SPRD
 Delta: O_D= -0.9608896E-08 O_OD= -0.6284423E-07 O_TOT= -0.7245312E-07 <-- DLTA
 ------------------------------------------------------------------------------
 Cycle:    488
  WF centre and spread    1  (  0.000000, -0.000000, -3.294541 )     1.82075318
  WF centre and spread    2  (  3.294542, -0.000000,  0.000000 )     1.82088252
  WF centre and spread    3  (  0.000001,  3.294541,  0.000000 )     1.82103986
  Sum of centres and spreads (  3.294542,  3.294541, -3.294541 )     5.46267557
 
    488    -0.629E-07     0.0001609016        5.4626781728       3.45  <-- CONV
        O_D=      0.0000000 O_OD=      0.0074071 O_TOT=      5.4626782 <-- SPRD
 Delta: O_D= -0.5348586E-08 O_OD= -0.5759952E-07 O_TOT= -0.6294811E-07 <-- DLTA
 ------------------------------------------------------------------------------
 Cycle:    489
  WF centre and spread    1  (  0.000000, -0.000000, -3.294541 )     1.82075318
  WF centre and spread    2  (  3.294542, -0.000000,  0.000000 )     1.82088248
  WF centre and spread    3  (  0.000001,  3.294541,  0.000000 )     1.82103985
  Sum of centres and spreads (  3.294542,  3.294541, -3.294541 )     5.46267551
 
    489    -0.547E-07     0.0001394435        5.4626781180       3.46  <-- CONV
        O_D=      0.0000000 O_OD=      0.0074070 O_TOT=      5.4626781 <-- SPRD
 Delta: O_D=  0.4940740E-08 O_OD= -0.5968637E-07 O_TOT= -0.5474563E-07 <-- DLTA
 ------------------------------------------------------------------------------
 Cycle:    490
  WF centre and spread    1  (  0.000000, -0.000000, -3.294541 )     1.82075318
  WF centre and spread    2  (  3.294542, -0.000000,  0.000000 )     1.82088244
  WF centre and spread    3  (  0.000001,  3.294541,  0.000000 )     1.82103984
  Sum of centres and spreads (  3.294542,  3.294541, -3.294541 )     5.46267547
 
    490    -0.473E-07     0.0001394820        5.4626780708       3.47  <-- CONV
        O_D=      0.0000000 O_OD=      0.0074070 O_TOT=      5.4626781 <-- SPRD
 Delta: O_D=  0.4098285E-08 O_OD= -0.5136374E-07 O_TOT= -0.4726546E-07 <-- DLTA
 ------------------------------------------------------------------------------
 Cycle:    491
  WF centre and spread    1  (  0.000000, -0.000000, -3.294541 )     1.82075312
  WF centre and spread    2  (  3.294542, -0.000000,  0.000000 )     1.82088239
  WF centre and spread    3  (  0.000001,  3.294541,  0.000000 )     1.82103982
  Sum of centres and spreads (  3.294542,  3.294541, -3.294541 )     5.46267534
 
    491    -0.127E-06     0.0001480121        5.4626779443       3.47  <-- CONV
        O_D=      0.0000000 O_OD=      0.0074068 O_TOT=      5.4626779 <-- SPRD
 Delta: O_D=  0.2254076E-07 O_OD= -0.1490680E-06 O_TOT= -0.1265273E-06 <-- DLTA
 ------------------------------------------------------------------------------
 Cycle:    492
  WF centre and spread    1  (  0.000000, -0.000000, -3.294541 )     1.82075307
  WF centre and spread    2  (  3.294542, -0.000000,  0.000000 )     1.82088236
  WF centre and spread    3  (  0.000001,  3.294541,  0.000000 )     1.82103979
  Sum of centres and spreads (  3.294542,  3.294541, -3.294541 )     5.46267522
 
    492    -0.119E-06     0.0003145417        5.4626778252       3.48  <-- CONV
        O_D=      0.0000000 O_OD=      0.0074067 O_TOT=      5.4626778 <-- SPRD
 Delta: O_D= -0.2080911E-07 O_OD= -0.9826057E-07 O_TOT= -0.1190697E-06 <-- DLTA
 ------------------------------------------------------------------------------
 Cycle:    493
  WF centre and spread    1  (  0.000000, -0.000000, -3.294541 )     1.82075303
  WF centre and spread    2  (  3.294542, -0.000000,  0.000000 )     1.82088236
  WF centre and spread    3  (  0.000001,  3.294541,  0.000000 )     1.82103977
  Sum of centres and spreads (  3.294542,  3.294541, -3.294541 )     5.46267517
 
    493    -0.527E-07     0.0001661261        5.4626777725       3.49  <-- CONV
        O_D=      0.0000000 O_OD=      0.0074067 O_TOT=      5.4626778 <-- SPRD
 Delta: O_D= -0.6778044E-08 O_OD= -0.4593520E-07 O_TOT= -0.5271324E-07 <-- DLTA
 ------------------------------------------------------------------------------
 Cycle:    494
  WF centre and spread    1  (  0.000000, -0.000000, -3.294541 )     1.82075298
  WF centre and spread    2  (  3.294542, -0.000000,  0.000000 )     1.82088238
  WF centre and spread    3  (  0.000001,  3.294541,  0.000000 )     1.82103976
  Sum of centres and spreads (  3.294542,  3.294541, -3.294541 )     5.46267512
 
    494    -0.509E-07     0.0001289622        5.4626777216       3.49  <-- CONV
        O_D=      0.0000000 O_OD=      0.0074066 O_TOT=      5.4626777 <-- SPRD
 Delta: O_D= -0.4676118E-08 O_OD= -0.4617917E-07 O_TOT= -0.5085529E-07 <-- DLTA
 ------------------------------------------------------------------------------
 Cycle:    495
  WF centre and spread    1  (  0.000000, -0.000000, -3.294541 )     1.82075293
  WF centre and spread    2  (  3.294542, -0.000000,  0.000000 )     1.82088239
  WF centre and spread    3  (  0.000001,  3.294541,  0.000000 )     1.82103975
  Sum of centres and spreads (  3.294542,  3.294541, -3.294541 )     5.46267506
 
    495    -0.567E-07     0.0001464313        5.4626776650       3.50  <-- CONV
        O_D=      0.0000000 O_OD=      0.0074066 O_TOT=      5.4626777 <-- SPRD
 Delta: O_D=  0.2205016E-08 O_OD= -0.5885775E-07 O_TOT= -0.5665273E-07 <-- DLTA
 ------------------------------------------------------------------------------
 Cycle:    496
  WF centre and spread    1  (  0.000000, -0.000000, -3.294541 )     1.82075287
  WF centre and spread    2  (  3.294542, -0.000000,  0.000000 )     1.82088238
  WF centre and spread    3  (  0.000001,  3.294541,  0.000000 )     1.82103972
  Sum of centres and spreads (  3.294542,  3.294541, -3.294541 )     5.46267498
 
    496    -0.842E-07     0.0001544592        5.4626775808       3.51  <-- CONV
        O_D=      0.0000000 O_OD=      0.0074065 O_TOT=      5.4626776 <-- SPRD
 Delta: O_D=  0.1156979E-07 O_OD= -0.9578137E-07 O_TOT= -0.8421158E-07 <-- DLTA
 ------------------------------------------------------------------------------
 Cycle:    497
  WF centre and spread    1  (  0.000000, -0.000000, -3.294541 )     1.82075283
  WF centre and spread    2  (  3.294542, -0.000000,  0.000000 )     1.82088238
  WF centre and spread    3  (  0.000001,  3.294541,  0.000000 )     1.82103971
  Sum of centres and spreads (  3.294542,  3.294541, -3.294541 )     5.46267493
 
    497    -0.508E-07     0.0001630108        5.4626775300       3.51  <-- CONV
        O_D=      0.0000000 O_OD=      0.0074064 O_TOT=      5.4626775 <-- SPRD
 Delta: O_D= -0.8628399E-09 O_OD= -0.4989401E-07 O_TOT= -0.5075685E-07 <-- DLTA
 ------------------------------------------------------------------------------
 Cycle:    498
  WF centre and spread    1  (  0.000000, -0.000000, -3.294541 )     1.82075282
  WF centre and spread    2  (  3.294542, -0.000000,  0.000000 )     1.82088236
  WF centre and spread    3  (  0.000001,  3.294541,  0.000000 )     1.82103970
  Sum of centres and spreads (  3.294542,  3.294541, -3.294541 )     5.46267488
 
    498    -0.450E-07     0.0001608014        5.4626774850       3.52  <-- CONV
        O_D=      0.0000000 O_OD=      0.0074064 O_TOT=      5.4626775 <-- SPRD
 Delta: O_D= -0.7534980E-09 O_OD= -0.4426279E-07 O_TOT= -0.4501629E-07 <-- DLTA
 ------------------------------------------------------------------------------
 Cycle:    499
  WF centre and spread    1  (  0.000000, -0.000000, -3.294541 )     1.82075281
  WF centre and spread    2  (  3.294542, -0.000000,  0.000000 )     1.82088230
  WF centre and spread    3  (  0.000001,  3.294541,  0.000000 )     1.82103969
  Sum of centres and spreads (  3.294542,  3.294541, -3.294541 )     5.46267480
 
    499    -0.794E-07     0.0001510386        5.4626774056       3.53  <-- CONV
        O_D=      0.0000000 O_OD=      0.0074063 O_TOT=      5.4626774 <-- SPRD
 Delta: O_D= -0.9235964E-08 O_OD= -0.7013610E-07 O_TOT= -0.7937206E-07 <-- DLTA
 ------------------------------------------------------------------------------
 Cycle:    500
  WF centre and spread    1  (  0.000000, -0.000000, -3.294541 )     1.82075281
  WF centre and spread    2  (  3.294542, -0.000000,  0.000000 )     1.82088226
  WF centre and spread    3  (  0.000001,  3.294541,  0.000000 )     1.82103967
  Sum of centres and spreads (  3.294542,  3.294541, -3.294541 )     5.46267474
 
    500    -0.582E-07     0.0001482273        5.4626773474       3.54  <-- CONV
        O_D=      0.0000000 O_OD=      0.0074063 O_TOT=      5.4626773 <-- SPRD
 Delta: O_D= -0.3419211E-08 O_OD= -0.5478784E-07 O_TOT= -0.5820705E-07 <-- DLTA
 ------------------------------------------------------------------------------

 Writing checkpoint file mp-23251.chk... done

 Final State
  WF centre and spread    1  (  0.000000, -0.000000, -3.294541 )     1.82075281
  WF centre and spread    2  (  3.294542, -0.000000,  0.000000 )     1.82088226
  WF centre and spread    3  (  0.000001,  3.294541,  0.000000 )     1.82103967
  Sum of centres and spreads (  3.294542,  3.294541, -3.294541 )     5.46267474
 
         Spreads (Ang^2)       Omega I      =     5.455271069
        ================       Omega D      =     0.000000003
                               Omega OD     =     0.007406276
    Final Spread (Ang^2)       Omega Total  =     5.462677347
 ------------------------------------------------------------------------------
 Time for wannierise            3.536 (sec)

 Writing checkpoint file mp-23251.chk... done

 Time for plotting              0.000 (sec)
 Total Execution Time           4.833 (sec)

 *===========================================================================*
 |                             TIMING INFORMATION                            |
 *===========================================================================*
 |    Tag                                                Ncalls      Time (s)|
 |---------------------------------------------------------------------------|
 |kmesh: get                                        :         1         1.039|
 |overlap: allocate                                 :         1         0.002|
 |overlap: read                                     :         1         0.137|
 |wann: main                                        :         1         3.536|
 |plot: main                                        :         1         0.000|
 *---------------------------------------------------------------------------*
 
 All done: wannier90 exiting
