
     Program PWSCF v.7.1 starts on  8Apr2024 at 15:14: 0 

     This program is part of the open-source Quantum ESPRESSO suite
     for quantum simulation of materials; please cite
         "P. Giannozzi et al., J. Phys.:Condens. Matter 21 395502 (2009);
         "P. Giannozzi et al., J. Phys.:Condens. Matter 29 465901 (2017);
         "P. Giannozzi et al., J. Chem. Phys. 152 154105 (2020);
          URL http://www.quantum-espresso.org", 
     in publications or presentations arising from this work. More details at
     http://www.quantum-espresso.org/quote

     Parallel version (MPI), running on    16 processors

     MPI processes distributed on     1 nodes
     245100 MiB available memory on the printing compute node when the environment starts
 
     Reading input from pw_mp-23251_nscf_k3000_E65.in
Warning: card &IONS ignored
Warning: card / ignored
Warning: card &CELL ignored
Warning: card / ignored

     Current dimensions of program PWSCF are:
     Max number of different atomic species (ntypx) = 10
     Max number of k-points (npk) =  40000
     Max angular momentum in pseudopotentials (lmaxx) =  4

     Atomic positions and unit cell read from directory:
     out/mp-23251.save/
     Atomic positions from file used, from input discarded
 
 
     R & G space division:  proc/nbgrp/npool/nimage =      16
     Subspace diagonalization in iterative solution of the eigenvalue problem:
     a serial algorithm will be used

 
     Parallelization info
     --------------------
     sticks:   dense  smooth     PW     G-vecs:    dense   smooth      PW
     Min          87      87     27                 2144     2144     372
     Max          88      88     28                 2147     2147     375
     Sum        1393    1393    433                34327    34327    5961
 
     Using Slab Decomposition
 


     bravais-lattice index     =            2
     lattice parameter (alat)  =      12.4516  a.u.
     unit-cell volume          =     482.6266 (a.u.)^3
     number of atoms/cell      =            2
     number of atomic types    =            2
     number of electrons       =        16.00
     number of Kohn-Sham states=           16
     kinetic-energy cutoff     =      65.0000  Ry
     charge density cutoff     =     260.0000  Ry
     Exchange-correlation= PBE
                           (   1   4   3   4   0   0   0)

     celldm(1)=  12.451559  celldm(2)=   0.000000  celldm(3)=   0.000000
     celldm(4)=   0.000000  celldm(5)=   0.000000  celldm(6)=   0.000000

     crystal axes: (cart. coord. in units of alat)
               a(1) = (  -0.500000   0.000000   0.500000 )  
               a(2) = (   0.000000   0.500000   0.500000 )  
               a(3) = (  -0.500000   0.500000   0.000000 )  

     reciprocal axes: (cart. coord. in units 2 pi/alat)
               b(1) = ( -1.000000 -1.000000  1.000000 )  
               b(2) = (  1.000000  1.000000  1.000000 )  
               b(3) = ( -1.000000  1.000000 -1.000000 )  


     PseudoPot. # 1 for Br read from file:
     /usr/scratch4/magr4826/Promotion/Python/Code/devEb/pseudo/SG15/Br.upf
     MD5 check sum: 5b50323dbf1c0ae0ed9e7f1e72c3f86c
     Pseudo is Norm-conserving, Zval =  7.0
     Generated using ONCVPSP code by D. R. Hamann
     Using radial grid of  602 points,  6 beta functions with: 
                l(1) =   0
                l(2) =   0
                l(3) =   1
                l(4) =   1
                l(5) =   2
                l(6) =   2

     PseudoPot. # 2 for K  read from file:
     /usr/scratch4/magr4826/Promotion/Python/Code/devEb/pseudo/SG15/K.upf
     MD5 check sum: 254690d02b26e0029262a4c77e854448
     Pseudo is Norm-conserving, Zval =  9.0
     Generated using ONCVPSP code by D. R. Hamann
     Using radial grid of  602 points,  6 beta functions with: 
                l(1) =   0
                l(2) =   0
                l(3) =   1
                l(4) =   1
                l(5) =   2
                l(6) =   2

     atomic species   valence    mass     pseudopotential
        Br             7.00    79.90400     Br( 1.00)
        K              9.00    39.09830     K ( 1.00)

     No symmetry found



   Cartesian axes

     site n.     atom                  positions (alat units)
         1           K   tau(   1) = (   0.0000000   0.0000000   0.0000000  )
         2           Br  tau(   2) = (  -0.5000000   0.5000000   0.5000000  )

     number of k points=  1728  Gaussian smearing, width (Ry)=  0.0005

     Number of k-points >= 100: set verbosity='high' to print them.

     Dense  grid:    34327 G-vectors     FFT dimensions: (  45,  45,  45)

     Estimated max dynamical RAM per process >     116.11 MB

     Estimated total dynamical RAM >       1.81 GB

     The potential is recalculated from file :
     out/mp-23251.save/charge-density

     Starting wfcs are random

     Band Structure Calculation
     Davidson diagonalization with overlap

     ethr =  5.00E-06,  avg # of iterations = 44.7

     total cpu time spent up to now is      146.3 secs

     End of band structure calculation

     Number of k-points >= 100: set verbosity='high' to print the bands.

     the Fermi energy is     5.4006 ev
     (compare with:     5.4006 eV, computed in scf)

     Writing all to output data dir out/mp-23251.save/
 
     init_run     :      0.12s CPU      0.14s WALL (       1 calls)
     electrons    :    131.73s CPU    145.86s WALL (       1 calls)

     Called by init_run:
     wfcinit      :      0.00s CPU      0.00s WALL (       1 calls)
     potinit      :      0.02s CPU      0.02s WALL (       1 calls)
     hinit0       :      0.05s CPU      0.07s WALL (       1 calls)

     Called by electrons:
     c_bands      :    131.73s CPU    145.86s WALL (       1 calls)
     v_of_rho     :      0.01s CPU      0.01s WALL (       1 calls)

     Called by c_bands:
     init_us_2    :      0.07s CPU      0.08s WALL (    1728 calls)
     init_us_2:cp :      0.07s CPU      0.08s WALL (    1728 calls)
     cegterg      :    126.85s CPU    129.98s WALL (    4701 calls)

     Called by *egterg:
     cdiaghg      :     16.31s CPU     16.73s WALL (   79047 calls)
     h_psi        :    106.05s CPU    108.67s WALL (   83748 calls)
     g_psi        :      0.44s CPU      0.45s WALL (   77319 calls)

     Called by h_psi:
     h_psi:calbec :      2.12s CPU      2.18s WALL (   83748 calls)
     vloc_psi     :    102.34s CPU    104.86s WALL (   83748 calls)
     add_vuspsi   :      1.20s CPU      1.25s WALL (   83748 calls)

     General routines
     calbec       :      2.04s CPU      2.10s WALL (   83748 calls)
     fft          :      0.01s CPU      0.02s WALL (      10 calls)
     fftw         :     97.64s CPU    100.03s WALL ( 1511842 calls)
 
     Parallel routines
 
     PWSCF        :   2m16.14s CPU   2m51.49s WALL

 
   This run was terminated on:  15:16:52   8Apr2024            

=------------------------------------------------------------------------------=
   JOB DONE.
=------------------------------------------------------------------------------=
