 
             +---------------------------------------------------+
             |                                                   |
             |                   WANNIER90                       |
             |                                                   |
             +---------------------------------------------------+
             |                                                   |
             |        Welcome to the Maximally-Localized         |
             |        Generalized Wannier Functions code         |
             |            http://www.wannier.org                 |
             |                                                   |
             |                                                   |
             |  Wannier90 Developer Group:                       |
             |    Giovanni Pizzi    (EPFL)                       |
             |    Valerio Vitale    (Cambridge)                  |
             |    David Vanderbilt  (Rutgers University)         |
             |    Nicola Marzari    (EPFL)                       |
             |    Ivo Souza         (Universidad del Pais Vasco) |
             |    Arash A. Mostofi  (Imperial College London)    |
             |    Jonathan R. Yates (University of Oxford)       |
             |                                                   |
             |  For the full list of Wannier90 3.x authors,      |
             |  please check the code documentation and the      |
             |  README on the GitHub page of the code            |
             |                                                   |
             |                                                   |
             |  Please cite                                      |
             |                                                   |
             |  [ref] "Wannier90 as a community code:            |
             |        new features and applications",            |
             |        G. Pizzi et al., J. Phys. Cond. Matt. 32,  |
             |        165902 (2020).                             |
             |        http://doi.org/10.1088/1361-648X/ab51ff    |
             |                                                   |
             |  in any publications arising from the use of      |
             |  this code. For the method please cite            |
             |                                                   |
             |  [ref] "Maximally Localized Generalised Wannier   |
             |         Functions for Composite Energy Bands"     |
             |         N. Marzari and D. Vanderbilt              |
             |         Phys. Rev. B 56 12847 (1997)              |
             |                                                   |
             |  [ref] "Maximally Localized Wannier Functions     |
             |         for Entangled Energy Bands"               |
             |         I. Souza, N. Marzari and D. Vanderbilt    |
             |         Phys. Rev. B 65 035109 (2001)             |
             |                                                   |
             |                                                   |
             | Copyright (c) 1996-2020                           |
             |        The Wannier90 Developer Group and          |
             |        individual contributors                    |
             |                                                   |
             |      Release: 3.1.0        5th March    2020      |
             |                                                   |
             | This program is free software; you can            |
             | redistribute it and/or modify it under the terms  |
             | of the GNU General Public License as published by |
             | the Free Software Foundation; either version 2 of |
             | the License, or (at your option) any later version|
             |                                                   |
             | This program is distributed in the hope that it   |
             | will be useful, but WITHOUT ANY WARRANTY; without |
             | even the implied warranty of MERCHANTABILITY or   |
             | FITNESS FOR A PARTICULAR PURPOSE. See the GNU     |
             | General Public License for more details.          |
             |                                                   |
             | You should have received a copy of the GNU General|
             | Public License along with this program; if not,   |
             | write to the Free Software Foundation, Inc.,      |
             | 675 Mass Ave, Cambridge, MA 02139, USA.           |
             |                                                   |
             +---------------------------------------------------+
             |    Execution started on  3Jan2024 at 14:31:36     |
             +---------------------------------------------------+
 
 ******************************************************************************
 * -> Using CODATA 2006 constant values                                       *
 *    (http://physics.nist.gov/cuu/Constants/index.html)                      *
 * -> Using Bohr value from CODATA                                            *
 ******************************************************************************
 

 Running in parallel on   8 CPUs

 
                                    ------
                                    SYSTEM
                                    ------
 
                              Lattice Vectors (Ang)
                    a_1    -2.852374   0.000000   2.852374
                    a_2     0.000000   2.852374   2.852374
                    a_3    -2.852374   2.852374   0.000000
 
                   Unit Cell Volume:      46.41404  (Ang^3)
 
                        Reciprocal-Space Vectors (Ang^-1)
                    b_1    -1.101396  -1.101396   1.101396
                    b_2     1.101396   1.101396   1.101396
                    b_3    -1.101396   1.101396  -1.101396
  
 *----------------------------------------------------------------------------*
 |   Site       Fractional Coordinate          Cartesian Coordinate (Ang)     |
 +----------------------------------------------------------------------------+
 | Ca   1   0.00000   0.00000   0.00000   |    0.00000   0.00000   0.00000    |
 | S    1   0.50000   0.50000   0.50000   |   -2.85237   2.85237   2.85237    |
 *----------------------------------------------------------------------------*
                                ------------
                                K-POINT GRID
                                ------------
  
             Grid size = 12 x 12 x 12      Total points = 1728
  
  
 *---------------------------------- MAIN ------------------------------------*
 |  Number of Wannier Functions               :                 3             |
 |  Number of Objective Wannier Functions     :                 3             |
 |  Number of input Bloch states              :                 3             |
 |  Output verbosity (1=low, 5=high)          :                 1             |
 |  Timing Level (1=low, 5=high)              :                 1             |
 |  Optimisation (0=memory, 3=speed)          :                 3             |
 |  Length Unit                               :               Ang             |
 |  Post-processing setup (write *.nnkp)      :                 F             |
 |  Using Gamma-only branch of algorithms     :                 F             |
 *----------------------------------------------------------------------------*
 *------------------------------- WANNIERISE ---------------------------------*
 |  Total number of iterations                :               500             |
 |  Number of CG steps before reset           :                 5             |
 |  Trial step length for line search         :             2.000             |
 |  Convergence tolerence                     :         0.100E-09             |
 |  Convergence window                        :                -1             |
 |  Iterations between writing output         :                 1             |
 |  Iterations between backing up to disk     :               100             |
 |  Write r^2_nm to file                      :                 F             |
 |  Write xyz WF centres to file              :                 F             |
 |  Write on-site energies <0n|H|0n> to file  :                 F             |
 |  Use guiding centre to control phases      :                 F             |
 |  Use phases for initial projections        :                 F             |
 *----------------------------------------------------------------------------*
 Time to read parameters        0.115 (sec)

 *---------------------------------- K-MESH ----------------------------------*
 +----------------------------------------------------------------------------+
 |                    Distance to Nearest-Neighbour Shells                    |
 |                    ------------------------------------                    |
 |          Shell             Distance (Ang^-1)          Multiplicity         |
 |          -----             -----------------          ------------         |
 |             1                   0.158973                      8            |
 |             2                   0.183566                      6            |
 |             3                   0.259601                     12            |
 |             4                   0.304410                     24            |
 |             5                   0.317946                      8            |
 |             6                   0.367132                      6            |
 |             7                   0.400073                     24            |
 |             8                   0.410466                     24            |
 |             9                   0.449643                     24            |
 |            10                   0.476918                     32            |
 |            11                   0.519203                     12            |
 |            12                   0.542995                     48            |
 |            13                   0.550698                     30            |
 |            14                   0.580487                     24            |
 |            15                   0.601861                     24            |
 |            16                   0.608819                     24            |
 |            17                   0.635891                      8            |
 |            18                   0.655462                     48            |
 |            19                   0.661856                     24            |
 |            20                   0.686841                     48            |
 |            21                   0.704998                     72            |
 |            22                   0.734264                      6            |
 |            23                   0.751276                     24            |
 |            24                   0.756862                     48            |
 |            25                   0.778804                     36            |
 |            26                   0.794864                     56            |
 |            27                   0.800145                     24            |
 |            28                   0.820932                     24            |
 |            29                   0.836183                     72            |
 |            30                   0.841205                     48            |
 |            31                   0.861001                     24            |
 |            32                   0.875554                     48            |
 |            33                   0.899286                     24            |
 |            34                   0.913229                     72            |
 |            35                   0.917830                     30            |
 |            36                   0.936006                     72            |
 +----------------------------------------------------------------------------+
 | The b-vectors are chosen automatically                                     |
 | The following shells are used:   1                                         |
 +----------------------------------------------------------------------------+
 |                        Shell   # Nearest-Neighbours                        |
 |                        -----   --------------------                        |
 |                          1               8                                 |
 +----------------------------------------------------------------------------+
 | Completeness relation is fully satisfied [Eq. (B1), PRB 56, 12847 (1997)]  |
 +----------------------------------------------------------------------------+
 |                  b_k Vectors (Ang^-1) and Weights (Ang^2)                  |
 |                  ----------------------------------------                  |
 |            No.         b_k(x)      b_k(y)      b_k(z)        w_b           |
 |            ---        --------------------------------     --------        |
 |             1        -0.091783    0.091783   -0.091783    14.838354        |
 |             2         0.091783    0.091783    0.091783    14.838354        |
 |             3        -0.091783   -0.091783    0.091783    14.838354        |
 |             4        -0.091783    0.091783    0.091783    14.838354        |
 |             5         0.091783   -0.091783    0.091783    14.838354        |
 |             6        -0.091783   -0.091783   -0.091783    14.838354        |
 |             7         0.091783    0.091783   -0.091783    14.838354        |
 |             8         0.091783   -0.091783   -0.091783    14.838354        |
 +----------------------------------------------------------------------------+
 |                           b_k Directions (Ang^-1)                          |
 |                           -----------------------                          |
 |            No.           x           y           z                         |
 |            ---        --------------------------------                     |
 |             1        -0.091783    0.091783   -0.091783                     |
 |             2         0.091783    0.091783    0.091783                     |
 |             3        -0.091783   -0.091783    0.091783                     |
 |             4        -0.091783    0.091783    0.091783                     |
 +----------------------------------------------------------------------------+
  
 Time to get kmesh              1.056 (sec)
 *============================================================================*
 |                              MEMORY ESTIMATE                               |
 |         Maximum RAM allocated during each phase of the calculation         |
 *============================================================================*
 |                            Wannierise:            7.00 Mb                  |
 |                          plot_wannier:            7.00 Mb                  |
 *----------------------------------------------------------------------------*
  
 Starting a new Wannier90 calculation ...


 Reading overlaps from mp-1672.mmn    :  Created on  3Jan2024 at 14:31:31

 Reading projections from mp-1672.amn :  Created on  3Jan2024 at 14:31:31  with SCDM

 Time to read overlaps          0.137 (sec)

 Writing checkpoint file mp-1672.chk... done

 
 *------------------------------- WANNIERISE ---------------------------------*
 +--------------------------------------------------------------------+<-- CONV
 | Iter  Delta Spread     RMS Gradient      Spread (Ang^2)      Time  |<-- CONV
 +--------------------------------------------------------------------+<-- CONV
 
 ------------------------------------------------------------------------------
 Initial State
  WF centre and spread    1  (  0.000176,  0.001330,  2.851263 )     2.29959504
  WF centre and spread    2  (  0.001045,  2.850901, -0.000326 )     2.30394037
  WF centre and spread    3  (  2.851728,  0.000571,  0.001889 )     2.30412081
  Sum of centres and spreads (  2.852949,  2.852802,  2.852825 )     6.90765623
 
      0     0.691E+01     0.0000000000        6.9076581788       0.00  <-- CONV
        O_D=      0.1078599 O_OD=      0.2332384 O_TOT=      6.9076582 <-- SPRD
 ------------------------------------------------------------------------------
 Cycle:      1
  WF centre and spread    1  ( -0.000096,  0.000144,  2.852417 )     2.21938115
  WF centre and spread    2  (  0.000071,  2.852354, -0.000150 )     2.22034296
  WF centre and spread    3  (  2.852543,  0.000014,  0.000235 )     2.21984011
  Sum of centres and spreads (  2.852519,  2.852513,  2.852502 )     6.65956421
 
      1    -0.248E+00     0.1177615952        6.6595661663       0.01  <-- CONV
        O_D=      0.0194461 O_OD=      0.0735601 O_TOT=      6.6595662 <-- SPRD
 Delta: O_D= -0.8841374E-01 O_OD= -0.1596783E+00 O_TOT= -0.2480920E+00 <-- DLTA
 ------------------------------------------------------------------------------
 Cycle:      2
  WF centre and spread    1  ( -0.000136, -0.000033,  2.852590 )     2.20791869
  WF centre and spread    2  ( -0.000081,  2.852570, -0.000128 )     2.20846379
  WF centre and spread    3  (  2.852674, -0.000071, -0.000011 )     2.20809211
  Sum of centres and spreads (  2.852456,  2.852465,  2.852451 )     6.62447459
 
      2    -0.351E-01     0.0891387546        6.6244765410       0.01  <-- CONV
        O_D=      0.0063643 O_OD=      0.0515524 O_TOT=      6.6244765 <-- SPRD
 Delta: O_D= -0.1308185E-01 O_OD= -0.2200777E-01 O_TOT= -0.3508963E-01 <-- DLTA
 ------------------------------------------------------------------------------
 Cycle:      3
  WF centre and spread    1  ( -0.000118, -0.000062,  2.852584 )     2.20371746
  WF centre and spread    2  ( -0.000097,  2.852577, -0.000101 )     2.20407925
  WF centre and spread    3  (  2.852641, -0.000076, -0.000057 )     2.20387660
  Sum of centres and spreads (  2.852426,  2.852439,  2.852426 )     6.61167330
 
      3    -0.128E-01     0.0602896315        6.6116752574       0.02  <-- CONV
        O_D=      0.0027954 O_OD=      0.0423199 O_TOT=      6.6116753 <-- SPRD
 Delta: O_D= -0.3568827E-02 O_OD= -0.9232456E-02 O_TOT= -0.1280128E-01 <-- DLTA
 ------------------------------------------------------------------------------
 Cycle:      4
  WF centre and spread    1  ( -0.000080, -0.000050,  2.852522 )     2.20143823
  WF centre and spread    2  ( -0.000073,  2.852520, -0.000067 )     2.20170030
  WF centre and spread    3  (  2.852556, -0.000055, -0.000049 )     2.20158368
  Sum of centres and spreads (  2.852404,  2.852416,  2.852406 )     6.60472222
 
      4    -0.695E-02     0.0486960597        6.6047241726       0.03  <-- CONV
        O_D=      0.0012974 O_OD=      0.0368668 O_TOT=      6.6047242 <-- SPRD
 Delta: O_D= -0.1498003E-02 O_OD= -0.5453081E-02 O_TOT= -0.6951085E-02 <-- DLTA
 ------------------------------------------------------------------------------
 Cycle:      5
  WF centre and spread    1  ( -0.000046, -0.000027,  2.852458 )     2.20026200
  WF centre and spread    2  ( -0.000042,  2.852457, -0.000039 )     2.20048374
  WF centre and spread    3  (  2.852477, -0.000032, -0.000027 )     2.20041162
  Sum of centres and spreads (  2.852389,  2.852398,  2.852391 )     6.60115736
 
      5    -0.356E-02     0.0372225615        6.6011593172       0.03  <-- CONV
        O_D=      0.0005502 O_OD=      0.0340492 O_TOT=      6.6011593 <-- SPRD
 Delta: O_D= -0.7472317E-03 O_OD= -0.2817624E-02 O_TOT= -0.3564855E-02 <-- DLTA
 ------------------------------------------------------------------------------
 Cycle:      6
  WF centre and spread    1  ( -0.000024, -0.000010,  2.852413 )     2.19973422
  WF centre and spread    2  ( -0.000020,  2.852412, -0.000021 )     2.19994327
  WF centre and spread    3  (  2.852424, -0.000016, -0.000009 )     2.19990655
  Sum of centres and spreads (  2.852381,  2.852387,  2.852383 )     6.59958405
 
      6    -0.157E-02     0.0252149078        6.5995859978       0.04  <-- CONV
        O_D=      0.0002108 O_OD=      0.0328153 O_TOT=      6.5995860 <-- SPRD
 Delta: O_D= -0.3394140E-03 O_OD= -0.1233905E-02 O_TOT= -0.1573319E-02 <-- DLTA
 ------------------------------------------------------------------------------
 Cycle:      7
  WF centre and spread    1  ( -0.000021, -0.000008,  2.852409 )     2.19957902
  WF centre and spread    2  ( -0.000017,  2.852407, -0.000019 )     2.19978774
  WF centre and spread    3  (  2.852419, -0.000014, -0.000008 )     2.19975989
  Sum of centres and spreads (  2.852381,  2.852385,  2.852382 )     6.59912665
 
      7    -0.457E-03     0.0161547258        6.5991286047       0.05  <-- CONV
        O_D=      0.0000931 O_OD=      0.0324756 O_TOT=      6.5991286 <-- SPRD
 Delta: O_D= -0.1177169E-03 O_OD= -0.3396763E-03 O_TOT= -0.4573932E-03 <-- DLTA
 ------------------------------------------------------------------------------
 Cycle:      8
  WF centre and spread    1  ( -0.000015, -0.000005,  2.852398 )     2.19948205
  WF centre and spread    2  ( -0.000011,  2.852397, -0.000014 )     2.19969389
  WF centre and spread    3  (  2.852407, -0.000010, -0.000004 )     2.19967554
  Sum of centres and spreads (  2.852380,  2.852383,  2.852380 )     6.59885149
 
      8    -0.275E-03     0.0101167765        6.5988534382       0.06  <-- CONV
        O_D=      0.0000331 O_OD=      0.0322604 O_TOT=      6.5988534 <-- SPRD
 Delta: O_D= -0.5995704E-04 O_OD= -0.2152094E-03 O_TOT= -0.2751665E-03 <-- DLTA
 ------------------------------------------------------------------------------
 Cycle:      9
  WF centre and spread    1  ( -0.000010, -0.000002,  2.852390 )     2.19944366
  WF centre and spread    2  ( -0.000007,  2.852388, -0.000010 )     2.19965814
  WF centre and spread    3  (  2.852396, -0.000006, -0.000001 )     2.19964537
  Sum of centres and spreads (  2.852379,  2.852381,  2.852379 )     6.59874718
 
      9    -0.104E-03     0.0067688232        6.5987491307       0.06  <-- CONV
        O_D=      0.0000128 O_OD=      0.0321764 O_TOT=      6.5987491 <-- SPRD
 Delta: O_D= -0.2034081E-04 O_OD= -0.8396673E-04 O_TOT= -0.1043075E-03 <-- DLTA
 ------------------------------------------------------------------------------
 Cycle:     10
  WF centre and spread    1  ( -0.000007,  0.000001,  2.852383 )     2.19942863
  WF centre and spread    2  ( -0.000003,  2.852382, -0.000007 )     2.19964354
  WF centre and spread    3  (  2.852388, -0.000003,  0.000002 )     2.19963450
  Sum of centres and spreads (  2.852379,  2.852379,  2.852378 )     6.59870667
 
     10    -0.405E-04     0.0039577069        6.5987086189       0.07  <-- CONV
        O_D=      0.0000062 O_OD=      0.0321425 O_TOT=      6.5987086 <-- SPRD
 Delta: O_D= -0.6598150E-05 O_OD= -0.3391363E-04 O_TOT= -0.4051178E-04 <-- DLTA
 ------------------------------------------------------------------------------
 Cycle:     11
  WF centre and spread    1  ( -0.000003,  0.000003,  2.852377 )     2.19942102
  WF centre and spread    2  (  0.000000,  2.852375, -0.000004 )     2.19963468
  WF centre and spread    3  (  2.852381, -0.000001,  0.000004 )     2.19962931
  Sum of centres and spreads (  2.852378,  2.852377,  2.852377 )     6.59868500
 
     11    -0.217E-04     0.0026405409        6.5986869567       0.08  <-- CONV
        O_D=      0.0000038 O_OD=      0.0321233 O_TOT=      6.5986870 <-- SPRD
 Delta: O_D= -0.2413747E-05 O_OD= -0.1924842E-04 O_TOT= -0.2166217E-04 <-- DLTA
 ------------------------------------------------------------------------------
 Cycle:     12
  WF centre and spread    1  ( -0.000002,  0.000004,  2.852374 )     2.19941810
  WF centre and spread    2  (  0.000002,  2.852373, -0.000003 )     2.19963091
  WF centre and spread    3  (  2.852377,  0.000000,  0.000005 )     2.19962790
  Sum of centres and spreads (  2.852378,  2.852377,  2.852377 )     6.59867691
 
     12    -0.810E-05     0.0019739952        6.5986788617       0.08  <-- CONV
        O_D=      0.0000022 O_OD=      0.0321167 O_TOT=      6.5986789 <-- SPRD
 Delta: O_D= -0.1530533E-05 O_OD= -0.6564487E-05 O_TOT= -0.8095019E-05 <-- DLTA
 ------------------------------------------------------------------------------
 Cycle:     13
  WF centre and spread    1  ( -0.000002,  0.000004,  2.852374 )     2.19941708
  WF centre and spread    2  (  0.000002,  2.852372, -0.000003 )     2.19962927
  WF centre and spread    3  (  2.852377,  0.000000,  0.000005 )     2.19962686
  Sum of centres and spreads (  2.852378,  2.852377,  2.852376 )     6.59867321
 
     13    -0.370E-05     0.0013915144        6.5986751598       0.09  <-- CONV
        O_D=      0.0000013 O_OD=      0.0321139 O_TOT=      6.5986752 <-- SPRD
 Delta: O_D= -0.9039431E-06 O_OD= -0.2797962E-05 O_TOT= -0.3701905E-05 <-- DLTA
 ------------------------------------------------------------------------------
 Cycle:     14
  WF centre and spread    1  ( -0.000001,  0.000004,  2.852374 )     2.19941635
  WF centre and spread    2  (  0.000002,  2.852372, -0.000002 )     2.19962774
  WF centre and spread    3  (  2.852376,  0.000000,  0.000005 )     2.19962629
  Sum of centres and spreads (  2.852377,  2.852377,  2.852376 )     6.59867038
 
     14    -0.282E-05     0.0010361132        6.5986723359       0.10  <-- CONV
        O_D=      0.0000007 O_OD=      0.0321117 O_TOT=      6.5986723 <-- SPRD
 Delta: O_D= -0.6396224E-06 O_OD= -0.2184252E-05 O_TOT= -0.2823874E-05 <-- DLTA
 ------------------------------------------------------------------------------
 Cycle:     15
  WF centre and spread    1  ( -0.000001,  0.000003,  2.852373 )     2.19941610
  WF centre and spread    2  (  0.000002,  2.852372, -0.000002 )     2.19962665
  WF centre and spread    3  (  2.852376,  0.000001,  0.000005 )     2.19962589
  Sum of centres and spreads (  2.852377,  2.852376,  2.852376 )     6.59866864
 
     15    -0.175E-05     0.0007034420        6.5986705896       0.10  <-- CONV
        O_D=      0.0000005 O_OD=      0.0321102 O_TOT=      6.5986706 <-- SPRD
 Delta: O_D= -0.2014860E-06 O_OD= -0.1544868E-05 O_TOT= -0.1746354E-05 <-- DLTA
 ------------------------------------------------------------------------------
 Cycle:     16
  WF centre and spread    1  ( -0.000000,  0.000003,  2.852373 )     2.19941587
  WF centre and spread    2  (  0.000002,  2.852372, -0.000001 )     2.19962583
  WF centre and spread    3  (  2.852375,  0.000001,  0.000004 )     2.19962555
  Sum of centres and spreads (  2.852376,  2.852376,  2.852375 )     6.59866725
 
     16    -0.139E-05     0.0006474235        6.5986692025       0.11  <-- CONV
        O_D=      0.0000003 O_OD=      0.0321090 O_TOT=      6.5986692 <-- SPRD
 Delta: O_D= -0.1837929E-06 O_OD= -0.1203245E-05 O_TOT= -0.1387037E-05 <-- DLTA
 ------------------------------------------------------------------------------
 Cycle:     17
  WF centre and spread    1  (  0.000000,  0.000002,  2.852373 )     2.19941563
  WF centre and spread    2  (  0.000002,  2.852372, -0.000001 )     2.19962539
  WF centre and spread    3  (  2.852374,  0.000001,  0.000003 )     2.19962536
  Sum of centres and spreads (  2.852376,  2.852375,  2.852375 )     6.59866638
 
     17    -0.867E-06     0.0005688513        6.5986683360       0.12  <-- CONV
        O_D=      0.0000002 O_OD=      0.0321083 O_TOT=      6.5986683 <-- SPRD
 Delta: O_D= -0.1407580E-06 O_OD= -0.7257639E-06 O_TOT= -0.8665218E-06 <-- DLTA
 ------------------------------------------------------------------------------
 Cycle:     18
  WF centre and spread    1  (  0.000001,  0.000001,  2.852373 )     2.19941543
  WF centre and spread    2  (  0.000001,  2.852373, -0.000000 )     2.19962524
  WF centre and spread    3  (  2.852374,  0.000000,  0.000002 )     2.19962528
  Sum of centres and spreads (  2.852375,  2.852375,  2.852375 )     6.59866595
 
     18    -0.430E-06     0.0004015906        6.5986679055       0.12  <-- CONV
        O_D=      0.0000001 O_OD=      0.0321079 O_TOT=      6.5986679 <-- SPRD
 Delta: O_D= -0.7611839E-07 O_OD= -0.3543708E-06 O_TOT= -0.4304892E-06 <-- DLTA
 ------------------------------------------------------------------------------
 Cycle:     19
  WF centre and spread    1  (  0.000001,  0.000001,  2.852373 )     2.19941533
  WF centre and spread    2  (  0.000001,  2.852373, -0.000000 )     2.19962518
  WF centre and spread    3  (  2.852374,  0.000000,  0.000002 )     2.19962522
  Sum of centres and spreads (  2.852375,  2.852375,  2.852375 )     6.59866574
 
     19    -0.217E-06     0.0003541047        6.5986676882       0.13  <-- CONV
        O_D=      0.0000000 O_OD=      0.0321077 O_TOT=      6.5986677 <-- SPRD
 Delta: O_D= -0.5326368E-07 O_OD= -0.1640643E-06 O_TOT= -0.2173279E-06 <-- DLTA
 ------------------------------------------------------------------------------
 Cycle:     20
  WF centre and spread    1  (  0.000000,  0.000001,  2.852373 )     2.19941522
  WF centre and spread    2  (  0.000001,  2.852373, -0.000000 )     2.19962518
  WF centre and spread    3  (  2.852374,  0.000000,  0.000001 )     2.19962519
  Sum of centres and spreads (  2.852375,  2.852375,  2.852375 )     6.59866559
 
     20    -0.148E-06     0.0002177800        6.5986675407       0.14  <-- CONV
        O_D=      0.0000000 O_OD=      0.0321076 O_TOT=      6.5986675 <-- SPRD
 Delta: O_D= -0.1660680E-07 O_OD= -0.1308953E-06 O_TOT= -0.1475021E-06 <-- DLTA
 ------------------------------------------------------------------------------
 Cycle:     21
  WF centre and spread    1  (  0.000000,  0.000000,  2.852374 )     2.19941512
  WF centre and spread    2  (  0.000001,  2.852374, -0.000000 )     2.19962520
  WF centre and spread    3  (  2.852374,  0.000000,  0.000001 )     2.19962515
  Sum of centres and spreads (  2.852375,  2.852374,  2.852374 )     6.59866547
 
     21    -0.121E-06     0.0001907579        6.5986674200       0.14  <-- CONV
        O_D=      0.0000000 O_OD=      0.0321075 O_TOT=      6.5986674 <-- SPRD
 Delta: O_D= -0.8051064E-09 O_OD= -0.1199016E-06 O_TOT= -0.1207067E-06 <-- DLTA
 ------------------------------------------------------------------------------
 Cycle:     22
  WF centre and spread    1  (  0.000000, -0.000000,  2.852374 )     2.19941503
  WF centre and spread    2  (  0.000000,  2.852374, -0.000000 )     2.19962524
  WF centre and spread    3  (  2.852374,  0.000000,  0.000000 )     2.19962507
  Sum of centres and spreads (  2.852375,  2.852374,  2.852374 )     6.59866534
 
     22    -0.125E-06     0.0001793600        6.5986672948       0.15  <-- CONV
        O_D=      0.0000000 O_OD=      0.0321074 O_TOT=      6.5986673 <-- SPRD
 Delta: O_D=  0.8617535E-08 O_OD= -0.1338320E-06 O_TOT= -0.1252145E-06 <-- DLTA
 ------------------------------------------------------------------------------
 Cycle:     23
  WF centre and spread    1  (  0.000000, -0.000001,  2.852375 )     2.19941499
  WF centre and spread    2  ( -0.000000,  2.852375,  0.000000 )     2.19962528
  WF centre and spread    3  (  2.852375, -0.000000, -0.000001 )     2.19962487
  Sum of centres and spreads (  2.852375,  2.852374,  2.852374 )     6.59866514
 
     23    -0.207E-06     0.0001959634        6.5986670877       0.16  <-- CONV
        O_D=      0.0000001 O_OD=      0.0321071 O_TOT=      6.5986671 <-- SPRD
 Delta: O_D=  0.3143596E-07 O_OD= -0.2384535E-06 O_TOT= -0.2070175E-06 <-- DLTA
 ------------------------------------------------------------------------------
 Cycle:     24
  WF centre and spread    1  (  0.000000, -0.000001,  2.852376 )     2.19941499
  WF centre and spread    2  ( -0.000001,  2.852376,  0.000000 )     2.19962525
  WF centre and spread    3  (  2.852375, -0.000001, -0.000002 )     2.19962465
  Sum of centres and spreads (  2.852375,  2.852374,  2.852374 )     6.59866489
 
     24    -0.250E-06     0.0002653149        6.5986668377       0.16  <-- CONV
        O_D=      0.0000001 O_OD=      0.0321068 O_TOT=      6.5986668 <-- SPRD
 Delta: O_D=  0.2926533E-07 O_OD= -0.2793238E-06 O_TOT= -0.2500585E-06 <-- DLTA
 ------------------------------------------------------------------------------
 Cycle:     25
  WF centre and spread    1  (  0.000000, -0.000001,  2.852375 )     2.19941493
  WF centre and spread    2  ( -0.000001,  2.852376,  0.000000 )     2.19962514
  WF centre and spread    3  (  2.852375, -0.000000, -0.000001 )     2.19962462
  Sum of centres and spreads (  2.852375,  2.852374,  2.852374 )     6.59866469
 
     25    -0.197E-06     0.0003397013        6.5986666403       0.17  <-- CONV
        O_D=      0.0000000 O_OD=      0.0321067 O_TOT=      6.5986666 <-- SPRD
 Delta: O_D= -0.4842954E-07 O_OD= -0.1489721E-06 O_TOT= -0.1974016E-06 <-- DLTA
 ------------------------------------------------------------------------------
 Cycle:     26
  WF centre and spread    1  (  0.000000, -0.000001,  2.852375 )     2.19941488
  WF centre and spread    2  ( -0.000000,  2.852375,  0.000000 )     2.19962501
  WF centre and spread    3  (  2.852375, -0.000000, -0.000001 )     2.19962465
  Sum of centres and spreads (  2.852375,  2.852374,  2.852374 )     6.59866454
 
     26    -0.153E-06     0.0002293123        6.5986664877       0.18  <-- CONV
        O_D=      0.0000000 O_OD=      0.0321066 O_TOT=      6.5986665 <-- SPRD
 Delta: O_D= -0.1962892E-07 O_OD= -0.1329703E-06 O_TOT= -0.1525992E-06 <-- DLTA
 ------------------------------------------------------------------------------
 Cycle:     27
  WF centre and spread    1  (  0.000000, -0.000000,  2.852375 )     2.19941483
  WF centre and spread    2  (  0.000000,  2.852375,  0.000000 )     2.19962488
  WF centre and spread    3  (  2.852374, -0.000000, -0.000000 )     2.19962469
  Sum of centres and spreads (  2.852375,  2.852374,  2.852374 )     6.59866440
 
     27    -0.132E-06     0.0001810886        6.5986663562       0.19  <-- CONV
        O_D=      0.0000000 O_OD=      0.0321064 O_TOT=      6.5986664 <-- SPRD
 Delta: O_D=  0.4116771E-08 O_OD= -0.1356399E-06 O_TOT= -0.1315231E-06 <-- DLTA
 ------------------------------------------------------------------------------
 Cycle:     28
  WF centre and spread    1  (  0.000001,  0.000000,  2.852374 )     2.19941474
  WF centre and spread    2  (  0.000001,  2.852374,  0.000000 )     2.19962476
  WF centre and spread    3  (  2.852374,  0.000000,  0.000000 )     2.19962475
  Sum of centres and spreads (  2.852375,  2.852374,  2.852374 )     6.59866425
 
     28    -0.149E-06     0.0001976284        6.5986662068       0.19  <-- CONV
        O_D=      0.0000000 O_OD=      0.0321063 O_TOT=      6.5986662 <-- SPRD
 Delta: O_D=  0.4758273E-08 O_OD= -0.1540707E-06 O_TOT= -0.1493125E-06 <-- DLTA
 ------------------------------------------------------------------------------
 Cycle:     29
  WF centre and spread    1  (  0.000001,  0.000001,  2.852373 )     2.19941459
  WF centre and spread    2  (  0.000001,  2.852373,  0.000000 )     2.19962467
  WF centre and spread    3  (  2.852373,  0.000000,  0.000001 )     2.19962483
  Sum of centres and spreads (  2.852375,  2.852374,  2.852374 )     6.59866409
 
     29    -0.165E-06     0.0002183486        6.5986660422       0.20  <-- CONV
        O_D=      0.0000000 O_OD=      0.0321061 O_TOT=      6.5986660 <-- SPRD
 Delta: O_D=  0.5329082E-08 O_OD= -0.1700243E-06 O_TOT= -0.1646952E-06 <-- DLTA
 ------------------------------------------------------------------------------
 Cycle:     30
  WF centre and spread    1  (  0.000001,  0.000001,  2.852373 )     2.19941437
  WF centre and spread    2  (  0.000002,  2.852372,  0.000000 )     2.19962460
  WF centre and spread    3  (  2.852373,  0.000001,  0.000002 )     2.19962492
  Sum of centres and spreads (  2.852375,  2.852374,  2.852375 )     6.59866390
 
     30    -0.193E-06     0.0002230280        6.5986658488       0.21  <-- CONV
        O_D=      0.0000001 O_OD=      0.0321059 O_TOT=      6.5986658 <-- SPRD
 Delta: O_D=  0.2293967E-07 O_OD= -0.2163036E-06 O_TOT= -0.1933639E-06 <-- DLTA
 ------------------------------------------------------------------------------
 Cycle:     31
  WF centre and spread    1  (  0.000001,  0.000001,  2.852373 )     2.19941431
  WF centre and spread    2  (  0.000001,  2.852373,  0.000000 )     2.19962456
  WF centre and spread    3  (  2.852373,  0.000001,  0.000002 )     2.19962485
  Sum of centres and spreads (  2.852375,  2.852374,  2.852375 )     6.59866372
 
     31    -0.172E-06     0.0003102103        6.5986656770       0.21  <-- CONV
        O_D=      0.0000000 O_OD=      0.0321058 O_TOT=      6.5986657 <-- SPRD
 Delta: O_D= -0.3552557E-07 O_OD= -0.1362982E-06 O_TOT= -0.1718238E-06 <-- DLTA
 ------------------------------------------------------------------------------
 Cycle:     32
  WF centre and spread    1  (  0.000001,  0.000001,  2.852373 )     2.19941427
  WF centre and spread    2  (  0.000001,  2.852373,  0.000000 )     2.19962457
  WF centre and spread    3  (  2.852374,  0.000000,  0.000001 )     2.19962475
  Sum of centres and spreads (  2.852375,  2.852374,  2.852374 )     6.59866358
 
     32    -0.141E-06     0.0002002503        6.5986655364       0.22  <-- CONV
        O_D=      0.0000000 O_OD=      0.0321056 O_TOT=      6.5986655 <-- SPRD
 Delta: O_D= -0.2555582E-08 O_OD= -0.1380166E-06 O_TOT= -0.1405722E-06 <-- DLTA
 ------------------------------------------------------------------------------
 Cycle:     33
  WF centre and spread    1  (  0.000000,  0.000000,  2.852374 )     2.19941422
  WF centre and spread    2  (  0.000001,  2.852374, -0.000000 )     2.19962463
  WF centre and spread    3  (  2.852374,  0.000000,  0.000000 )     2.19962459
  Sum of centres and spreads (  2.852375,  2.852374,  2.852374 )     6.59866343
 
     33    -0.150E-06     0.0001998201        6.5986653864       0.23  <-- CONV
        O_D=      0.0000000 O_OD=      0.0321055 O_TOT=      6.5986654 <-- SPRD
 Delta: O_D=  0.2886916E-08 O_OD= -0.1528583E-06 O_TOT= -0.1499714E-06 <-- DLTA
 ------------------------------------------------------------------------------
 Cycle:     34
  WF centre and spread    1  (  0.000000, -0.000000,  2.852375 )     2.19941419
  WF centre and spread    2  (  0.000000,  2.852375, -0.000000 )     2.19962471
  WF centre and spread    3  (  2.852375, -0.000000, -0.000000 )     2.19962440
  Sum of centres and spreads (  2.852375,  2.852374,  2.852374 )     6.59866329
 
     34    -0.142E-06     0.0001948952        6.5986652441       0.23  <-- CONV
        O_D=      0.0000000 O_OD=      0.0321053 O_TOT=      6.5986652 <-- SPRD
 Delta: O_D= -0.9652534E-09 O_OD= -0.1413644E-06 O_TOT= -0.1423296E-06 <-- DLTA
 ------------------------------------------------------------------------------
 Cycle:     35
  WF centre and spread    1  (  0.000000, -0.000001,  2.852375 )     2.19941418
  WF centre and spread    2  ( -0.000000,  2.852376, -0.000000 )     2.19962479
  WF centre and spread    3  (  2.852375, -0.000000, -0.000001 )     2.19962416
  Sum of centres and spreads (  2.852375,  2.852374,  2.852374 )     6.59866313
 
     35    -0.162E-06     0.0001889390        6.5986650825       0.24  <-- CONV
        O_D=      0.0000000 O_OD=      0.0321051 O_TOT=      6.5986651 <-- SPRD
 Delta: O_D=  0.1185064E-07 O_OD= -0.1734690E-06 O_TOT= -0.1616183E-06 <-- DLTA
 ------------------------------------------------------------------------------
 Cycle:     36
  WF centre and spread    1  ( -0.000000, -0.000001,  2.852376 )     2.19941418
  WF centre and spread    2  ( -0.000001,  2.852376, -0.000000 )     2.19962481
  WF centre and spread    3  (  2.852376, -0.000001, -0.000001 )     2.19962396
  Sum of centres and spreads (  2.852375,  2.852374,  2.852374 )     6.59866295
 
     36    -0.177E-06     0.0002181958        6.5986649055       0.25  <-- CONV
        O_D=      0.0000001 O_OD=      0.0321049 O_TOT=      6.5986649 <-- SPRD
 Delta: O_D=  0.3038020E-07 O_OD= -0.2073182E-06 O_TOT= -0.1769380E-06 <-- DLTA
 ------------------------------------------------------------------------------
 Cycle:     37
  WF centre and spread    1  (  0.000000, -0.000001,  2.852376 )     2.19941411
  WF centre and spread    2  ( -0.000001,  2.852376, -0.000000 )     2.19962471
  WF centre and spread    3  (  2.852375, -0.000001, -0.000001 )     2.19962398
  Sum of centres and spreads (  2.852375,  2.852374,  2.852374 )     6.59866280
 
     37    -0.155E-06     0.0003082832        6.5986647504       0.25  <-- CONV
        O_D=      0.0000000 O_OD=      0.0321048 O_TOT=      6.5986648 <-- SPRD
 Delta: O_D= -0.3658661E-07 O_OD= -0.1185050E-06 O_TOT= -0.1550916E-06 <-- DLTA
 ------------------------------------------------------------------------------
 Cycle:     38
  WF centre and spread    1  (  0.000000, -0.000001,  2.852375 )     2.19941401
  WF centre and spread    2  ( -0.000000,  2.852375, -0.000000 )     2.19962455
  WF centre and spread    3  (  2.852375, -0.000000, -0.000001 )     2.19962409
  Sum of centres and spreads (  2.852375,  2.852374,  2.852374 )     6.59866265
 
     38    -0.143E-06     0.0002054607        6.5986646073       0.26  <-- CONV
        O_D=      0.0000000 O_OD=      0.0321047 O_TOT=      6.5986646 <-- SPRD
 Delta: O_D= -0.5700122E-08 O_OD= -0.1374201E-06 O_TOT= -0.1431202E-06 <-- DLTA
 ------------------------------------------------------------------------------
 Cycle:     39
  WF centre and spread    1  (  0.000000, -0.000000,  2.852374 )     2.19941389
  WF centre and spread    2  (  0.000000,  2.852374,  0.000000 )     2.19962435
  WF centre and spread    3  (  2.852374,  0.000000, -0.000000 )     2.19962426
  Sum of centres and spreads (  2.852375,  2.852374,  2.852374 )     6.59866250
 
     39    -0.150E-06     0.0001934755        6.5986644576       0.27  <-- CONV
        O_D=      0.0000000 O_OD=      0.0321045 O_TOT=      6.5986645 <-- SPRD
 Delta: O_D=  0.6444661E-08 O_OD= -0.1561485E-06 O_TOT= -0.1497038E-06 <-- DLTA
 ------------------------------------------------------------------------------
 Cycle:     40
  WF centre and spread    1  (  0.000001,  0.000001,  2.852373 )     2.19941375
  WF centre and spread    2  (  0.000001,  2.852373,  0.000000 )     2.19962419
  WF centre and spread    3  (  2.852374,  0.000000,  0.000001 )     2.19962441
  Sum of centres and spreads (  2.852375,  2.852374,  2.852374 )     6.59866235
 
     40    -0.155E-06     0.0002079814        6.5986643025       0.27  <-- CONV
        O_D=      0.0000000 O_OD=      0.0321044 O_TOT=      6.5986643 <-- SPRD
 Delta: O_D= -0.4574781E-08 O_OD= -0.1505653E-06 O_TOT= -0.1551400E-06 <-- DLTA
 ------------------------------------------------------------------------------
 Cycle:     41
  WF centre and spread    1  (  0.000001,  0.000001,  2.852373 )     2.19941362
  WF centre and spread    2  (  0.000001,  2.852373,  0.000000 )     2.19962410
  WF centre and spread    3  (  2.852373,  0.000001,  0.000001 )     2.19962449
  Sum of centres and spreads (  2.852375,  2.852374,  2.852374 )     6.59866221
 
     41    -0.141E-06     0.0002072061        6.5986641615       0.28  <-- CONV
        O_D=      0.0000000 O_OD=      0.0321042 O_TOT=      6.5986642 <-- SPRD
 Delta: O_D=  0.1476937E-09 O_OD= -0.1411614E-06 O_TOT= -0.1410137E-06 <-- DLTA
 ------------------------------------------------------------------------------
 Cycle:     42
  WF centre and spread    1  (  0.000001,  0.000001,  2.852373 )     2.19941347
  WF centre and spread    2  (  0.000001,  2.852372,  0.000000 )     2.19962405
  WF centre and spread    3  (  2.852373,  0.000001,  0.000002 )     2.19962452
  Sum of centres and spreads (  2.852375,  2.852374,  2.852374 )     6.59866204
 
     42    -0.168E-06     0.0002062426        6.5986639934       0.29  <-- CONV
        O_D=      0.0000001 O_OD=      0.0321040 O_TOT=      6.5986640 <-- SPRD
 Delta: O_D=  0.2788915E-07 O_OD= -0.1959913E-06 O_TOT= -0.1681022E-06 <-- DLTA
 ------------------------------------------------------------------------------
 Cycle:     43
  WF centre and spread    1  (  0.000001,  0.000001,  2.852373 )     2.19941343
  WF centre and spread    2  (  0.000001,  2.852373,  0.000000 )     2.19962402
  WF centre and spread    3  (  2.852373,  0.000001,  0.000001 )     2.19962443
  Sum of centres and spreads (  2.852375,  2.852374,  2.852374 )     6.59866188
 
     43    -0.163E-06     0.0002937213        6.5986638304       0.29  <-- CONV
        O_D=      0.0000000 O_OD=      0.0321039 O_TOT=      6.5986638 <-- SPRD
 Delta: O_D= -0.3128745E-07 O_OD= -0.1317006E-06 O_TOT= -0.1629881E-06 <-- DLTA
 ------------------------------------------------------------------------------
 Cycle:     44
  WF centre and spread    1  (  0.000001,  0.000001,  2.852373 )     2.19941342
  WF centre and spread    2  (  0.000001,  2.852373,  0.000000 )     2.19962404
  WF centre and spread    3  (  2.852373,  0.000000,  0.000001 )     2.19962428
  Sum of centres and spreads (  2.852375,  2.852374,  2.852374 )     6.59866174
 
     44    -0.136E-06     0.0002009993        6.5986636945       0.30  <-- CONV
        O_D=      0.0000000 O_OD=      0.0321038 O_TOT=      6.5986637 <-- SPRD
 Delta: O_D=  0.9767386E-10 O_OD= -0.1359418E-06 O_TOT= -0.1358441E-06 <-- DLTA
 ------------------------------------------------------------------------------
 Cycle:     45
  WF centre and spread    1  (  0.000000,  0.000000,  2.852374 )     2.19941342
  WF centre and spread    2  (  0.000000,  2.852374,  0.000000 )     2.19962412
  WF centre and spread    3  (  2.852374,  0.000000,  0.000000 )     2.19962405
  Sum of centres and spreads (  2.852375,  2.852374,  2.852374 )     6.59866159
 
     45    -0.154E-06     0.0002001348        6.5986635405       0.31  <-- CONV
        O_D=      0.0000000 O_OD=      0.0321036 O_TOT=      6.5986635 <-- SPRD
 Delta: O_D=  0.5291154E-08 O_OD= -0.1593142E-06 O_TOT= -0.1540231E-06 <-- DLTA
 ------------------------------------------------------------------------------
 Cycle:     46
  WF centre and spread    1  (  0.000000, -0.000000,  2.852375 )     2.19941341
  WF centre and spread    2  ( -0.000000,  2.852375, -0.000000 )     2.19962423
  WF centre and spread    3  (  2.852375, -0.000000, -0.000000 )     2.19962380
  Sum of centres and spreads (  2.852375,  2.852374,  2.852374 )     6.59866144
 
     46    -0.152E-06     0.0002027232        6.5986633887       0.31  <-- CONV
        O_D=      0.0000000 O_OD=      0.0321035 O_TOT=      6.5986634 <-- SPRD
 Delta: O_D= -0.6225301E-08 O_OD= -0.1456036E-06 O_TOT= -0.1518289E-06 <-- DLTA
 ------------------------------------------------------------------------------
 Cycle:     47
  WF centre and spread    1  (  0.000000, -0.000001,  2.852375 )     2.19941339
  WF centre and spread    2  ( -0.000000,  2.852376, -0.000000 )     2.19962432
  WF centre and spread    3  (  2.852375, -0.000000, -0.000001 )     2.19962358
  Sum of centres and spreads (  2.852375,  2.852374,  2.852374 )     6.59866129
 
     47    -0.143E-06     0.0001864407        6.5986632455       0.32  <-- CONV
        O_D=      0.0000000 O_OD=      0.0321033 O_TOT=      6.5986632 <-- SPRD
 Delta: O_D=  0.4758261E-08 O_OD= -0.1479001E-06 O_TOT= -0.1431418E-06 <-- DLTA
 ------------------------------------------------------------------------------
 Cycle:     48
  WF centre and spread    1  ( -0.000000, -0.000001,  2.852376 )     2.19941335
  WF centre and spread    2  ( -0.000001,  2.852376, -0.000000 )     2.19962434
  WF centre and spread    3  (  2.852376, -0.000001, -0.000001 )     2.19962346
  Sum of centres and spreads (  2.852375,  2.852374,  2.852374 )     6.59866114
 
     48    -0.152E-06     0.0001993075        6.5986630939       0.33  <-- CONV
        O_D=      0.0000001 O_OD=      0.0321031 O_TOT=      6.5986631 <-- SPRD
 Delta: O_D=  0.2935792E-07 O_OD= -0.1810025E-06 O_TOT= -0.1516446E-06 <-- DLTA
 ------------------------------------------------------------------------------
 Cycle:     49
  WF centre and spread    1  ( -0.000000, -0.000001,  2.852375 )     2.19941328
  WF centre and spread    2  ( -0.000000,  2.852376, -0.000000 )     2.19962424
  WF centre and spread    3  (  2.852375, -0.000000, -0.000001 )     2.19962348
  Sum of centres and spreads (  2.852375,  2.852374,  2.852374 )     6.59866100
 
     49    -0.143E-06     0.0002905254        6.5986629508       0.34  <-- CONV
        O_D=      0.0000000 O_OD=      0.0321030 O_TOT=      6.5986630 <-- SPRD
 Delta: O_D= -0.3085279E-07 O_OD= -0.1122612E-06 O_TOT= -0.1431140E-06 <-- DLTA
 ------------------------------------------------------------------------------
 Cycle:     50
  WF centre and spread    1  (  0.000000, -0.000001,  2.852375 )     2.19941318
  WF centre and spread    2  ( -0.000000,  2.852375, -0.000000 )     2.19962407
  WF centre and spread    3  (  2.852375, -0.000000, -0.000001 )     2.19962361
  Sum of centres and spreads (  2.852375,  2.852374,  2.852374 )     6.59866086
 
     50    -0.134E-06     0.0001980833        6.5986628167       0.34  <-- CONV
        O_D=      0.0000000 O_OD=      0.0321029 O_TOT=      6.5986628 <-- SPRD
 Delta: O_D= -0.3357249E-08 O_OD= -0.1306924E-06 O_TOT= -0.1340496E-06 <-- DLTA
 ------------------------------------------------------------------------------
 Cycle:     51
  WF centre and spread    1  (  0.000000, -0.000000,  2.852374 )     2.19941304
  WF centre and spread    2  (  0.000000,  2.852374,  0.000000 )     2.19962387
  WF centre and spread    3  (  2.852374,  0.000000,  0.000000 )     2.19962381
  Sum of centres and spreads (  2.852375,  2.852374,  2.852374 )     6.59866072
 
     51    -0.147E-06     0.0001875401        6.5986626694       0.35  <-- CONV
        O_D=      0.0000000 O_OD=      0.0321027 O_TOT=      6.5986627 <-- SPRD
 Delta: O_D=  0.1059575E-07 O_OD= -0.1579064E-06 O_TOT= -0.1473106E-06 <-- DLTA
 ------------------------------------------------------------------------------
 Cycle:     52
  WF centre and spread    1  (  0.000001,  0.000001,  2.852373 )     2.19941288
  WF centre and spread    2  (  0.000001,  2.852373,  0.000000 )     2.19962369
  WF centre and spread    3  (  2.852373,  0.000000,  0.000001 )     2.19962399
  Sum of centres and spreads (  2.852375,  2.852374,  2.852374 )     6.59866056
 
     52    -0.159E-06     0.0002143464        6.5986625108       0.36  <-- CONV
        O_D=      0.0000000 O_OD=      0.0321026 O_TOT=      6.5986625 <-- SPRD
 Delta: O_D= -0.3008860E-08 O_OD= -0.1556255E-06 O_TOT= -0.1586344E-06 <-- DLTA
 ------------------------------------------------------------------------------
 Cycle:     53
  WF centre and spread    1  (  0.000001,  0.000001,  2.852373 )     2.19941275
  WF centre and spread    2  (  0.000001,  2.852373,  0.000000 )     2.19962358
  WF centre and spread    3  (  2.852373,  0.000001,  0.000001 )     2.19962409
  Sum of centres and spreads (  2.852375,  2.852374,  2.852374 )     6.59866041
 
     53    -0.146E-06     0.0002154980        6.5986623650       0.36  <-- CONV
        O_D=      0.0000000 O_OD=      0.0321024 O_TOT=      6.5986624 <-- SPRD
 Delta: O_D= -0.3389470E-08 O_OD= -0.1423644E-06 O_TOT= -0.1457539E-06 <-- DLTA
 ------------------------------------------------------------------------------
 Cycle:     54
  WF centre and spread    1  (  0.000001,  0.000001,  2.852372 )     2.19941263
  WF centre and spread    2  (  0.000002,  2.852372,  0.000000 )     2.19962353
  WF centre and spread    3  (  2.852373,  0.000001,  0.000002 )     2.19962409
  Sum of centres and spreads (  2.852375,  2.852374,  2.852374 )     6.59866024
 
     54    -0.170E-06     0.0002059799        6.5986621949       0.37  <-- CONV
        O_D=      0.0000001 O_OD=      0.0321022 O_TOT=      6.5986622 <-- SPRD
 Delta: O_D=  0.2758153E-07 O_OD= -0.1977467E-06 O_TOT= -0.1701651E-06 <-- DLTA
 ------------------------------------------------------------------------------
 Cycle:     55
  WF centre and spread    1  (  0.000001,  0.000001,  2.852373 )     2.19941259
  WF centre and spread    2  (  0.000001,  2.852373,  0.000000 )     2.19962350
  WF centre and spread    3  (  2.852373,  0.000001,  0.000001 )     2.19962398
  Sum of centres and spreads (  2.852375,  2.852374,  2.852374 )     6.59866008
 
     55    -0.166E-06     0.0002919505        6.5986620289       0.38  <-- CONV
        O_D=      0.0000000 O_OD=      0.0321021 O_TOT=      6.5986620 <-- SPRD
 Delta: O_D= -0.2962084E-07 O_OD= -0.1363115E-06 O_TOT= -0.1659323E-06 <-- DLTA
 ------------------------------------------------------------------------------
 Cycle:     56
  WF centre and spread    1  (  0.000001,  0.000001,  2.852373 )     2.19941259
  WF centre and spread    2  (  0.000001,  2.852373,  0.000000 )     2.19962354
  WF centre and spread    3  (  2.852373,  0.000000,  0.000001 )     2.19962380
  Sum of centres and spreads (  2.852375,  2.852374,  2.852374 )     6.59865993
 
     56    -0.149E-06     0.0002046203        6.5986618798       0.38  <-- CONV
        O_D=      0.0000000 O_OD=      0.0321020 O_TOT=      6.5986619 <-- SPRD
 Delta: O_D=  0.3763940E-08 O_OD= -0.1529219E-06 O_TOT= -0.1491579E-06 <-- DLTA
 ------------------------------------------------------------------------------
 Cycle:     57
  WF centre and spread    1  (  0.000000,  0.000000,  2.852374 )     2.19941259
  WF centre and spread    2  (  0.000000,  2.852374,  0.000000 )     2.19962363
  WF centre and spread    3  (  2.852374,  0.000000,  0.000000 )     2.19962354
  Sum of centres and spreads (  2.852375,  2.852374,  2.852374 )     6.59865976
 
     57    -0.164E-06     0.0002179830        6.5986617159       0.39  <-- CONV
        O_D=      0.0000000 O_OD=      0.0321018 O_TOT=      6.5986617 <-- SPRD
 Delta: O_D=  0.1418302E-08 O_OD= -0.1653306E-06 O_TOT= -0.1639123E-06 <-- DLTA
 ------------------------------------------------------------------------------
 Cycle:     58
  WF centre and spread    1  (  0.000000, -0.000001,  2.852375 )     2.19941259
  WF centre and spread    2  ( -0.000000,  2.852375, -0.000000 )     2.19962374
  WF centre and spread    3  (  2.852375, -0.000000, -0.000000 )     2.19962329
  Sum of centres and spreads (  2.852375,  2.852374,  2.852374 )     6.59865962
 
     58    -0.143E-06     0.0002044155        6.5986615727       0.40  <-- CONV
        O_D=      0.0000000 O_OD=      0.0321017 O_TOT=      6.5986616 <-- SPRD
 Delta: O_D= -0.8643352E-08 O_OD= -0.1344803E-06 O_TOT= -0.1431236E-06 <-- DLTA
 ------------------------------------------------------------------------------
 Cycle:     59
  WF centre and spread    1  (  0.000000, -0.000001,  2.852375 )     2.19941257
  WF centre and spread    2  ( -0.000000,  2.852376, -0.000000 )     2.19962383
  WF centre and spread    3  (  2.852375, -0.000000, -0.000001 )     2.19962309
  Sum of centres and spreads (  2.852375,  2.852374,  2.852374 )     6.59865949
 
     59    -0.134E-06     0.0001812026        6.5986614387       0.40  <-- CONV
        O_D=      0.0000000 O_OD=      0.0321015 O_TOT=      6.5986614 <-- SPRD
 Delta: O_D=  0.4547104E-08 O_OD= -0.1385786E-06 O_TOT= -0.1340315E-06 <-- DLTA
 ------------------------------------------------------------------------------
 Cycle:     60
  WF centre and spread    1  ( -0.000000, -0.000001,  2.852376 )     2.19941251
  WF centre and spread    2  ( -0.000001,  2.852376, -0.000000 )     2.19962384
  WF centre and spread    3  (  2.852376, -0.000001, -0.000001 )     2.19962298
  Sum of centres and spreads (  2.852375,  2.852374,  2.852374 )     6.59865934
 
     60    -0.147E-06     0.0001939684        6.5986612922       0.41  <-- CONV
        O_D=      0.0000001 O_OD=      0.0321013 O_TOT=      6.5986613 <-- SPRD
 Delta: O_D=  0.3020180E-07 O_OD= -0.1767226E-06 O_TOT= -0.1465208E-06 <-- DLTA
 ------------------------------------------------------------------------------
 Cycle:     61
  WF centre and spread    1  ( -0.000000, -0.000001,  2.852375 )     2.19941244
  WF centre and spread    2  ( -0.000000,  2.852376, -0.000000 )     2.19962375
  WF centre and spread    3  (  2.852375, -0.000000, -0.000001 )     2.19962301
  Sum of centres and spreads (  2.852375,  2.852374,  2.852374 )     6.59865920
 
     61    -0.139E-06     0.0002888806        6.5986611534       0.42  <-- CONV
        O_D=      0.0000000 O_OD=      0.0321012 O_TOT=      6.5986612 <-- SPRD
 Delta: O_D= -0.3159578E-07 O_OD= -0.1072208E-06 O_TOT= -0.1388166E-06 <-- DLTA
 ------------------------------------------------------------------------------
 Cycle:     62
  WF centre and spread    1  (  0.000000, -0.000001,  2.852375 )     2.19941234
  WF centre and spread    2  ( -0.000000,  2.852375, -0.000000 )     2.19962359
  WF centre and spread    3  (  2.852375, -0.000000, -0.000000 )     2.19962314
  Sum of centres and spreads (  2.852375,  2.852374,  2.852374 )     6.59865907
 
     62    -0.129E-06     0.0001933685        6.5986610244       0.42  <-- CONV
        O_D=      0.0000000 O_OD=      0.0321011 O_TOT=      6.5986610 <-- SPRD
 Delta: O_D= -0.4065017E-08 O_OD= -0.1249526E-06 O_TOT= -0.1290176E-06 <-- DLTA
 ------------------------------------------------------------------------------
 Cycle:     63
  WF centre and spread    1  (  0.000000,  0.000000,  2.852374 )     2.19941221
  WF centre and spread    2  (  0.000000,  2.852374,  0.000000 )     2.19962339
  WF centre and spread    3  (  2.852374,  0.000000,  0.000000 )     2.19962333
  Sum of centres and spreads (  2.852375,  2.852374,  2.852374 )     6.59865893
 
     63    -0.141E-06     0.0001790346        6.5986608836       0.43  <-- CONV
        O_D=      0.0000000 O_OD=      0.0321009 O_TOT=      6.5986609 <-- SPRD
 Delta: O_D=  0.1415009E-07 O_OD= -0.1548799E-06 O_TOT= -0.1407298E-06 <-- DLTA
 ------------------------------------------------------------------------------
 Cycle:     64
  WF centre and spread    1  (  0.000001,  0.000001,  2.852373 )     2.19941204
  WF centre and spread    2  (  0.000001,  2.852373,  0.000000 )     2.19962319
  WF centre and spread    3  (  2.852373,  0.000000,  0.000001 )     2.19962353
  Sum of centres and spreads (  2.852375,  2.852374,  2.852374 )     6.59865877
 
     64    -0.166E-06     0.0002178130        6.5986607178       0.44  <-- CONV
        O_D=      0.0000000 O_OD=      0.0321008 O_TOT=      6.5986607 <-- SPRD
 Delta: O_D= -0.3401602E-10 O_OD= -0.1657715E-06 O_TOT= -0.1658055E-06 <-- DLTA
 ------------------------------------------------------------------------------
 Cycle:     65
  WF centre and spread    1  (  0.000001,  0.000001,  2.852373 )     2.19941190
  WF centre and spread    2  (  0.000001,  2.852372,  0.000000 )     2.19962307
  WF centre and spread    3  (  2.852373,  0.000001,  0.000001 )     2.19962364
  Sum of centres and spreads (  2.852375,  2.852374,  2.852374 )     6.59865861
 
     65    -0.157E-06     0.0002264379        6.5986605603       0.45  <-- CONV
        O_D=      0.0000000 O_OD=      0.0321006 O_TOT=      6.5986606 <-- SPRD
 Delta: O_D= -0.6046321E-08 O_OD= -0.1514479E-06 O_TOT= -0.1574942E-06 <-- DLTA
 ------------------------------------------------------------------------------
 Cycle:     66
  WF centre and spread    1  (  0.000001,  0.000001,  2.852372 )     2.19941178
  WF centre and spread    2  (  0.000002,  2.852372,  0.000000 )     2.19962301
  WF centre and spread    3  (  2.852372,  0.000001,  0.000002 )     2.19962364
  Sum of centres and spreads (  2.852375,  2.852374,  2.852374 )     6.59865843
 
     66    -0.176E-06     0.0002116919        6.5986603847       0.45  <-- CONV
        O_D=      0.0000001 O_OD=      0.0321004 O_TOT=      6.5986604 <-- SPRD
 Delta: O_D=  0.2803639E-07 O_OD= -0.2036906E-06 O_TOT= -0.1756543E-06 <-- DLTA
 ------------------------------------------------------------------------------
 Cycle:     67
  WF centre and spread    1  (  0.000001,  0.000001,  2.852373 )     2.19941174
  WF centre and spread    2  (  0.000001,  2.852372,  0.000000 )     2.19962299
  WF centre and spread    3  (  2.852373,  0.000001,  0.000001 )     2.19962352
  Sum of centres and spreads (  2.852375,  2.852374,  2.852374 )     6.59865826
 
     67    -0.177E-06     0.0002957815        6.5986602077       0.46  <-- CONV
        O_D=      0.0000000 O_OD=      0.0321003 O_TOT=      6.5986602 <-- SPRD
 Delta: O_D= -0.2962465E-07 O_OD= -0.1473938E-06 O_TOT= -0.1770185E-06 <-- DLTA
 ------------------------------------------------------------------------------
 Cycle:     68
  WF centre and spread    1  (  0.000001,  0.000001,  2.852373 )     2.19941174
  WF centre and spread    2  (  0.000001,  2.852373,  0.000000 )     2.19962303
  WF centre and spread    3  (  2.852373,  0.000000,  0.000001 )     2.19962332
  Sum of centres and spreads (  2.852375,  2.852374,  2.852374 )     6.59865809
 
     68    -0.165E-06     0.0002114188        6.5986600424       0.47  <-- CONV
        O_D=      0.0000000 O_OD=      0.0321001 O_TOT=      6.5986600 <-- SPRD
 Delta: O_D=  0.3526125E-08 O_OD= -0.1687438E-06 O_TOT= -0.1652176E-06 <-- DLTA
 ------------------------------------------------------------------------------
 Cycle:     69
  WF centre and spread    1  (  0.000000,  0.000000,  2.852374 )     2.19941174
  WF centre and spread    2  (  0.000000,  2.852374,  0.000000 )     2.19962313
  WF centre and spread    3  (  2.852374,  0.000000,  0.000000 )     2.19962305
  Sum of centres and spreads (  2.852375,  2.852374,  2.852374 )     6.59865792
 
     69    -0.173E-06     0.0002235326        6.5986598694       0.47  <-- CONV
        O_D=      0.0000000 O_OD=      0.0320999 O_TOT=      6.5986599 <-- SPRD
 Delta: O_D= -0.1531579E-08 O_OD= -0.1715220E-06 O_TOT= -0.1730536E-06 <-- DLTA
 ------------------------------------------------------------------------------
 Cycle:     70
  WF centre and spread    1  (  0.000000, -0.000000,  2.852375 )     2.19941174
  WF centre and spread    2  ( -0.000000,  2.852375, -0.000000 )     2.19962324
  WF centre and spread    3  (  2.852375, -0.000000, -0.000000 )     2.19962281
  Sum of centres and spreads (  2.852375,  2.852374,  2.852374 )     6.59865778
 
     70    -0.136E-06     0.0002020723        6.5986597338       0.48  <-- CONV
        O_D=      0.0000000 O_OD=      0.0320998 O_TOT=      6.5986597 <-- SPRD
 Delta: O_D= -0.9320475E-08 O_OD= -0.1262866E-06 O_TOT= -0.1356071E-06 <-- DLTA
 ------------------------------------------------------------------------------
 Cycle:     71
  WF centre and spread    1  (  0.000000, -0.000001,  2.852375 )     2.19941172
  WF centre and spread    2  ( -0.000000,  2.852376, -0.000000 )     2.19962333
  WF centre and spread    3  (  2.852375, -0.000000, -0.000001 )     2.19962260
  Sum of centres and spreads (  2.852375,  2.852374,  2.852374 )     6.59865765
 
     71    -0.128E-06     0.0001735627        6.5986596053       0.49  <-- CONV
        O_D=      0.0000000 O_OD=      0.0320997 O_TOT=      6.5986596 <-- SPRD
 Delta: O_D=  0.7162309E-08 O_OD= -0.1356175E-06 O_TOT= -0.1284552E-06 <-- DLTA
 ------------------------------------------------------------------------------
 Cycle:     72
  WF centre and spread    1  ( -0.000000, -0.000001,  2.852376 )     2.19941167
  WF centre and spread    2  ( -0.000001,  2.852376, -0.000000 )     2.19962335
  WF centre and spread    3  (  2.852376, -0.000000, -0.000001 )     2.19962249
  Sum of centres and spreads (  2.852375,  2.852374,  2.852374 )     6.59865751
 
     72    -0.140E-06     0.0001928414        6.5986594650       0.49  <-- CONV
        O_D=      0.0000001 O_OD=      0.0320995 O_TOT=      6.5986595 <-- SPRD
 Delta: O_D=  0.3506709E-07 O_OD= -0.1753861E-06 O_TOT= -0.1403190E-06 <-- DLTA
 ------------------------------------------------------------------------------
 Cycle:     73
  WF centre and spread    1  ( -0.000000, -0.000001,  2.852375 )     2.19941160
  WF centre and spread    2  ( -0.000000,  2.852376, -0.000000 )     2.19962326
  WF centre and spread    3  (  2.852375, -0.000000, -0.000001 )     2.19962251
  Sum of centres and spreads (  2.852375,  2.852374,  2.852374 )     6.59865737
 
     73    -0.141E-06     0.0002980938        6.5986593240       0.50  <-- CONV
        O_D=      0.0000000 O_OD=      0.0320994 O_TOT=      6.5986593 <-- SPRD
 Delta: O_D= -0.3579148E-07 O_OD= -0.1051856E-06 O_TOT= -0.1409771E-06 <-- DLTA
 ------------------------------------------------------------------------------
 Cycle:     74
  WF centre and spread    1  (  0.000000, -0.000001,  2.852375 )     2.19941149
  WF centre and spread    2  ( -0.000000,  2.852375, -0.000000 )     2.19962310
  WF centre and spread    3  (  2.852375, -0.000000, -0.000000 )     2.19962265
  Sum of centres and spreads (  2.852375,  2.852374,  2.852374 )     6.59865724
 
     74    -0.131E-06     0.0001943167        6.5986591932       0.51  <-- CONV
        O_D=      0.0000000 O_OD=      0.0320993 O_TOT=      6.5986592 <-- SPRD
 Delta: O_D= -0.6030754E-08 O_OD= -0.1247938E-06 O_TOT= -0.1308245E-06 <-- DLTA
 ------------------------------------------------------------------------------
 Cycle:     75
  WF centre and spread    1  (  0.000000, -0.000000,  2.852374 )     2.19941137
  WF centre and spread    2  (  0.000000,  2.852374,  0.000000 )     2.19962292
  WF centre and spread    3  (  2.852374,  0.000000,  0.000000 )     2.19962282
  Sum of centres and spreads (  2.852375,  2.852374,  2.852374 )     6.59865710
 
     75    -0.137E-06     0.0001767558        6.5986590557       0.51  <-- CONV
        O_D=      0.0000000 O_OD=      0.0320991 O_TOT=      6.5986591 <-- SPRD
 Delta: O_D=  0.9618408E-08 O_OD= -0.1470671E-06 O_TOT= -0.1374487E-06 <-- DLTA
 ------------------------------------------------------------------------------
 Cycle:     76
  WF centre and spread    1  (  0.000001,  0.000001,  2.852373 )     2.19941121
  WF centre and spread    2  (  0.000001,  2.852373,  0.000000 )     2.19962273
  WF centre and spread    3  (  2.852373,  0.000000,  0.000001 )     2.19962300
  Sum of centres and spreads (  2.852375,  2.852374,  2.852374 )     6.59865693
 
     76    -0.169E-06     0.0002018964        6.5986588870       0.52  <-- CONV
        O_D=      0.0000000 O_OD=      0.0320990 O_TOT=      6.5986589 <-- SPRD
 Delta: O_D=  0.4590461E-08 O_OD= -0.1733068E-06 O_TOT= -0.1687164E-06 <-- DLTA
 ------------------------------------------------------------------------------
 Cycle:     77
  WF centre and spread    1  (  0.000001,  0.000001,  2.852373 )     2.19941106
  WF centre and spread    2  (  0.000001,  2.852373,  0.000000 )     2.19962259
  WF centre and spread    3  (  2.852373,  0.000001,  0.000001 )     2.19962312
  Sum of centres and spreads (  2.852375,  2.852374,  2.852374 )     6.59865677
 
     77    -0.163E-06     0.0002288541        6.5986587244       0.53  <-- CONV
        O_D=      0.0000000 O_OD=      0.0320988 O_TOT=      6.5986587 <-- SPRD
 Delta: O_D= -0.5843773E-08 O_OD= -0.1567768E-06 O_TOT= -0.1626206E-06 <-- DLTA
 ------------------------------------------------------------------------------
 Cycle:     78
  WF centre and spread    1  (  0.000001,  0.000001,  2.852372 )     2.19941094
  WF centre and spread    2  (  0.000002,  2.852372,  0.000000 )     2.19962252
  WF centre and spread    3  (  2.852372,  0.000001,  0.000002 )     2.19962314
  Sum of centres and spreads (  2.852375,  2.852374,  2.852374 )     6.59865660
 
     78    -0.174E-06     0.0002107708        6.5986585505       0.53  <-- CONV
        O_D=      0.0000001 O_OD=      0.0320986 O_TOT=      6.5986586 <-- SPRD
 Delta: O_D=  0.2679360E-07 O_OD= -0.2007280E-06 O_TOT= -0.1739344E-06 <-- DLTA
 ------------------------------------------------------------------------------
 Cycle:     79
  WF centre and spread    1  (  0.000001,  0.000001,  2.852373 )     2.19941090
  WF centre and spread    2  (  0.000001,  2.852373,  0.000000 )     2.19962249
  WF centre and spread    3  (  2.852373,  0.000001,  0.000001 )     2.19962303
  Sum of centres and spreads (  2.852375,  2.852374,  2.852374 )     6.59865642
 
     79    -0.173E-06     0.0002936469        6.5986583772       0.54  <-- CONV
        O_D=      0.0000000 O_OD=      0.0320985 O_TOT=      6.5986584 <-- SPRD
 Delta: O_D= -0.2881223E-07 O_OD= -0.1444855E-06 O_TOT= -0.1732977E-06 <-- DLTA
 ------------------------------------------------------------------------------
 Cycle:     80
  WF centre and spread    1  (  0.000001,  0.000001,  2.852373 )     2.19941089
  WF centre and spread    2  (  0.000001,  2.852373,  0.000000 )     2.19962254
  WF centre and spread    3  (  2.852373,  0.000000,  0.000001 )     2.19962282
  Sum of centres and spreads (  2.852375,  2.852374,  2.852374 )     6.59865626
 
     80    -0.169E-06     0.0002090869        6.5986582086       0.55  <-- CONV
        O_D=      0.0000000 O_OD=      0.0320983 O_TOT=      6.5986582 <-- SPRD
 Delta: O_D=  0.4554368E-08 O_OD= -0.1731801E-06 O_TOT= -0.1686257E-06 <-- DLTA
 ------------------------------------------------------------------------------
 Cycle:     81
  WF centre and spread    1  (  0.000000,  0.000000,  2.852374 )     2.19941089
  WF centre and spread    2  (  0.000000,  2.852374,  0.000000 )     2.19962264
  WF centre and spread    3  (  2.852374,  0.000000,  0.000000 )     2.19962255
  Sum of centres and spreads (  2.852375,  2.852374,  2.852374 )     6.59865608
 
     81    -0.173E-06     0.0002260073        6.5986580358       0.56  <-- CONV
        O_D=      0.0000000 O_OD=      0.0320981 O_TOT=      6.5986580 <-- SPRD
 Delta: O_D= -0.1987411E-08 O_OD= -0.1707268E-06 O_TOT= -0.1727142E-06 <-- DLTA
 ------------------------------------------------------------------------------
 Cycle:     82
  WF centre and spread    1  (  0.000000, -0.000000,  2.852375 )     2.19941089
  WF centre and spread    2  ( -0.000000,  2.852375, -0.000000 )     2.19962275
  WF centre and spread    3  (  2.852375, -0.000000, -0.000000 )     2.19962231
  Sum of centres and spreads (  2.852375,  2.852374,  2.852374 )     6.59865595
 
     82    -0.134E-06     0.0002034292        6.5986579021       0.56  <-- CONV
        O_D=      0.0000000 O_OD=      0.0320980 O_TOT=      6.5986579 <-- SPRD
 Delta: O_D= -0.9098602E-08 O_OD= -0.1246842E-06 O_TOT= -0.1337828E-06 <-- DLTA
 ------------------------------------------------------------------------------
 Cycle:     83
  WF centre and spread    1  ( -0.000000, -0.000001,  2.852375 )     2.19941088
  WF centre and spread    2  ( -0.000000,  2.852376, -0.000000 )     2.19962284
  WF centre and spread    3  (  2.852375, -0.000000, -0.000001 )     2.19962210
  Sum of centres and spreads (  2.852375,  2.852374,  2.852374 )     6.59865582
 
     83    -0.131E-06     0.0001742295        6.5986577708       0.57  <-- CONV
        O_D=      0.0000000 O_OD=      0.0320978 O_TOT=      6.5986578 <-- SPRD
 Delta: O_D=  0.7443172E-08 O_OD= -0.1386693E-06 O_TOT= -0.1312261E-06 <-- DLTA
 ------------------------------------------------------------------------------
 Cycle:     84
  WF centre and spread    1  ( -0.000000, -0.000001,  2.852376 )     2.19941082
  WF centre and spread    2  ( -0.000001,  2.852376, -0.000000 )     2.19962286
  WF centre and spread    3  (  2.852376, -0.000000, -0.000001 )     2.19962199
  Sum of centres and spreads (  2.852375,  2.852374,  2.852374 )     6.59865567
 
     84    -0.144E-06     0.0001918091        6.5986576267       0.58  <-- CONV
        O_D=      0.0000001 O_OD=      0.0320977 O_TOT=      6.5986576 <-- SPRD
 Delta: O_D=  0.3850314E-07 O_OD= -0.1825933E-06 O_TOT= -0.1440902E-06 <-- DLTA
 ------------------------------------------------------------------------------
 Cycle:     85
  WF centre and spread    1  ( -0.000000, -0.000001,  2.852375 )     2.19941075
  WF centre and spread    2  ( -0.000000,  2.852376, -0.000000 )     2.19962277
  WF centre and spread    3  (  2.852375, -0.000000, -0.000001 )     2.19962202
  Sum of centres and spreads (  2.852375,  2.852374,  2.852374 )     6.59865553
 
     85    -0.140E-06     0.0003037469        6.5986574863       0.58  <-- CONV
        O_D=      0.0000000 O_OD=      0.0320976 O_TOT=      6.5986575 <-- SPRD
 Delta: O_D= -0.3994796E-07 O_OD= -0.1004758E-06 O_TOT= -0.1404238E-06 <-- DLTA
 ------------------------------------------------------------------------------
 Cycle:     86
  WF centre and spread    1  (  0.000000, -0.000000,  2.852375 )     2.19941064
  WF centre and spread    2  ( -0.000000,  2.852375, -0.000000 )     2.19962261
  WF centre and spread    3  (  2.852375, -0.000000, -0.000000 )     2.19962215
  Sum of centres and spreads (  2.852375,  2.852374,  2.852374 )     6.59865540
 
     86    -0.132E-06     0.0001902258        6.5986573542       0.59  <-- CONV
        O_D=      0.0000000 O_OD=      0.0320974 O_TOT=      6.5986574 <-- SPRD
 Delta: O_D= -0.5283274E-08 O_OD= -0.1268017E-06 O_TOT= -0.1320850E-06 <-- DLTA
 ------------------------------------------------------------------------------
 Cycle:     87
  WF centre and spread    1  (  0.000000,  0.000000,  2.852374 )     2.19941051
  WF centre and spread    2  (  0.000000,  2.852374,  0.000000 )     2.19962241
  WF centre and spread    3  (  2.852374,  0.000000,  0.000000 )     2.19962234
  Sum of centres and spreads (  2.852375,  2.852374,  2.852374 )     6.59865526
 
     87    -0.139E-06     0.0001795487        6.5986572152       0.60  <-- CONV
        O_D=      0.0000000 O_OD=      0.0320973 O_TOT=      6.5986572 <-- SPRD
 Delta: O_D=  0.1193353E-07 O_OD= -0.1509646E-06 O_TOT= -0.1390311E-06 <-- DLTA
 ------------------------------------------------------------------------------
 Cycle:     88
  WF centre and spread    1  (  0.000001,  0.000001,  2.852373 )     2.19941035
  WF centre and spread    2  (  0.000001,  2.852373,  0.000000 )     2.19962222
  WF centre and spread    3  (  2.852373,  0.000000,  0.000001 )     2.19962252
  Sum of centres and spreads (  2.852375,  2.852374,  2.852374 )     6.59865510
 
     88    -0.166E-06     0.0002107518        6.5986570488       0.60  <-- CONV
        O_D=      0.0000000 O_OD=      0.0320971 O_TOT=      6.5986570 <-- SPRD
 Delta: O_D=  0.1774857E-08 O_OD= -0.1681487E-06 O_TOT= -0.1663738E-06 <-- DLTA
 ------------------------------------------------------------------------------
 Cycle:     89
  WF centre and spread    1  (  0.000001,  0.000001,  2.852373 )     2.19941021
  WF centre and spread    2  (  0.000001,  2.852373,  0.000000 )     2.19962209
  WF centre and spread    3  (  2.852373,  0.000001,  0.000001 )     2.19962263
  Sum of centres and spreads (  2.852375,  2.852374,  2.852374 )     6.59865493
 
     89    -0.165E-06     0.0002262661        6.5986568841       0.61  <-- CONV
        O_D=      0.0000000 O_OD=      0.0320970 O_TOT=      6.5986569 <-- SPRD
 Delta: O_D= -0.6243890E-08 O_OD= -0.1584938E-06 O_TOT= -0.1647377E-06 <-- DLTA
 ------------------------------------------------------------------------------
 Cycle:     90
  WF centre and spread    1  (  0.000001,  0.000001,  2.852372 )     2.19941009
  WF centre and spread    2  (  0.000002,  2.852372,  0.000000 )     2.19962202
  WF centre and spread    3  (  2.852373,  0.000001,  0.000002 )     2.19962264
  Sum of centres and spreads (  2.852375,  2.852374,  2.852374 )     6.59865476
 
     90    -0.175E-06     0.0002108717        6.5986567089       0.62  <-- CONV
        O_D=      0.0000001 O_OD=      0.0320968 O_TOT=      6.5986567 <-- SPRD
 Delta: O_D=  0.2744474E-07 O_OD= -0.2026651E-06 O_TOT= -0.1752204E-06 <-- DLTA
 ------------------------------------------------------------------------------
 Cycle:     91
  WF centre and spread    1  (  0.000001,  0.000001,  2.852373 )     2.19941005
  WF centre and spread    2  (  0.000001,  2.852373,  0.000000 )     2.19962200
  WF centre and spread    3  (  2.852373,  0.000001,  0.000001 )     2.19962253
  Sum of centres and spreads (  2.852375,  2.852374,  2.852374 )     6.59865458
 
     91    -0.176E-06     0.0002928184        6.5986565330       0.62  <-- CONV
        O_D=      0.0000000 O_OD=      0.0320966 O_TOT=      6.5986565 <-- SPRD
 Delta: O_D= -0.2873807E-07 O_OD= -0.1471643E-06 O_TOT= -0.1759023E-06 <-- DLTA
 ------------------------------------------------------------------------------
 Cycle:     92
  WF centre and spread    1  (  0.000001,  0.000001,  2.852373 )     2.19941004
  WF centre and spread    2  (  0.000001,  2.852373,  0.000000 )     2.19962204
  WF centre and spread    3  (  2.852373,  0.000000,  0.000001 )     2.19962233
  Sum of centres and spreads (  2.852375,  2.852374,  2.852374 )     6.59865441
 
     92    -0.166E-06     0.0002107301        6.5986563667       0.63  <-- CONV
        O_D=      0.0000000 O_OD=      0.0320964 O_TOT=      6.5986564 <-- SPRD
 Delta: O_D=  0.2634637E-08 O_OD= -0.1689442E-06 O_TOT= -0.1663096E-06 <-- DLTA
 ------------------------------------------------------------------------------
 Cycle:     93
  WF centre and spread    1  (  0.000000,  0.000000,  2.852374 )     2.19941004
  WF centre and spread    2  (  0.000000,  2.852374,  0.000000 )     2.19962214
  WF centre and spread    3  (  2.852374,  0.000000,  0.000000 )     2.19962207
  Sum of centres and spreads (  2.852375,  2.852374,  2.852374 )     6.59865425
 
     93    -0.169E-06     0.0002206618        6.5986561977       0.64  <-- CONV
        O_D=      0.0000000 O_OD=      0.0320963 O_TOT=      6.5986562 <-- SPRD
 Delta: O_D= -0.1027996E-08 O_OD= -0.1679744E-06 O_TOT= -0.1690024E-06 <-- DLTA
 ------------------------------------------------------------------------------
 Cycle:     94
  WF centre and spread    1  (  0.000000, -0.000000,  2.852375 )     2.19941004
  WF centre and spread    2  ( -0.000000,  2.852375, -0.000000 )     2.19962225
  WF centre and spread    3  (  2.852375, -0.000000, -0.000000 )     2.19962182
  Sum of centres and spreads (  2.852375,  2.852374,  2.852374 )     6.59865411
 
     94    -0.138E-06     0.0002018594        6.5986560600       0.64  <-- CONV
        O_D=      0.0000000 O_OD=      0.0320961 O_TOT=      6.5986561 <-- SPRD
 Delta: O_D= -0.8472804E-08 O_OD= -0.1291495E-06 O_TOT= -0.1376223E-06 <-- DLTA
 ------------------------------------------------------------------------------
 Cycle:     95
  WF centre and spread    1  (  0.000000, -0.000001,  2.852375 )     2.19941003
  WF centre and spread    2  ( -0.000000,  2.852376, -0.000000 )     2.19962234
  WF centre and spread    3  (  2.852375, -0.000000, -0.000001 )     2.19962161
  Sum of centres and spreads (  2.852375,  2.852374,  2.852374 )     6.59865397
 
     95    -0.133E-06     0.0001752563        6.5986559272       0.65  <-- CONV
        O_D=      0.0000000 O_OD=      0.0320960 O_TOT=      6.5986559 <-- SPRD
 Delta: O_D=  0.6484274E-08 O_OD= -0.1393458E-06 O_TOT= -0.1328615E-06 <-- DLTA
 ------------------------------------------------------------------------------
 Cycle:     96
  WF centre and spread    1  ( -0.000000, -0.000001,  2.852375 )     2.19940998
  WF centre and spread    2  ( -0.000000,  2.852376, -0.000000 )     2.19962235
  WF centre and spread    3  (  2.852376, -0.000000, -0.000001 )     2.19962150
  Sum of centres and spreads (  2.852375,  2.852374,  2.852374 )     6.59865383
 
     96    -0.140E-06     0.0001866263        6.5986557870       0.66  <-- CONV
        O_D=      0.0000001 O_OD=      0.0320958 O_TOT=      6.5986558 <-- SPRD
 Delta: O_D=  0.3970004E-07 O_OD= -0.1798755E-06 O_TOT= -0.1401755E-06 <-- DLTA
 ------------------------------------------------------------------------------
 Cycle:     97
  WF centre and spread    1  ( -0.000000, -0.000001,  2.852375 )     2.19940990
  WF centre and spread    2  ( -0.000000,  2.852376, -0.000000 )     2.19962227
  WF centre and spread    3  (  2.852375, -0.000000, -0.000001 )     2.19962152
  Sum of centres and spreads (  2.852375,  2.852374,  2.852374 )     6.59865370
 
[...]
  Sum of centres and spreads (  2.852375,  2.852374,  2.852374 )     6.59858036
 
    473    -0.464E-06     0.0003396766        6.5985823174       3.49  <-- CONV
        O_D=      0.0000001 O_OD=      0.0320223 O_TOT=      6.5985823 <-- SPRD
 Delta: O_D=  0.2720120E-07 O_OD= -0.4910341E-06 O_TOT= -0.4638329E-06 <-- DLTA
 ------------------------------------------------------------------------------
 Cycle:    474
  WF centre and spread    1  (  0.000002,  0.000002,  2.852371 )     2.19937552
  WF centre and spread    2  (  0.000003,  2.852370,  0.000001 )     2.19960149
  WF centre and spread    3  (  2.852371,  0.000001,  0.000003 )     2.19960292
  Sum of centres and spreads (  2.852375,  2.852374,  2.852374 )     6.59857993
 
    474    -0.438E-06     0.0003952849        6.5985818793       3.50  <-- CONV
        O_D=      0.0000001 O_OD=      0.0320219 O_TOT=      6.5985819 <-- SPRD
 Delta: O_D=  0.1237218E-07 O_OD= -0.4504623E-06 O_TOT= -0.4380901E-06 <-- DLTA
 ------------------------------------------------------------------------------
 Cycle:    475
  WF centre and spread    1  (  0.000001,  0.000002,  2.852371 )     2.19937543
  WF centre and spread    2  (  0.000002,  2.852371,  0.000001 )     2.19960144
  WF centre and spread    3  (  2.852372,  0.000001,  0.000002 )     2.19960261
  Sum of centres and spreads (  2.852375,  2.852374,  2.852374 )     6.59857949
 
    475    -0.440E-06     0.0004016098        6.5985814398       3.51  <-- CONV
        O_D=      0.0000001 O_OD=      0.0320215 O_TOT=      6.5985814 <-- SPRD
 Delta: O_D= -0.1649360E-07 O_OD= -0.4230605E-06 O_TOT= -0.4395541E-06 <-- DLTA
 ------------------------------------------------------------------------------
 Cycle:    476
  WF centre and spread    1  (  0.000001,  0.000001,  2.852373 )     2.19937536
  WF centre and spread    2  (  0.000001,  2.852373,  0.000000 )     2.19960152
  WF centre and spread    3  (  2.852373,  0.000001,  0.000001 )     2.19960214
  Sum of centres and spreads (  2.852375,  2.852374,  2.852374 )     6.59857902
 
    476    -0.469E-06     0.0003941509        6.5985809708       3.51  <-- CONV
        O_D=      0.0000000 O_OD=      0.0320210 O_TOT=      6.5985810 <-- SPRD
 Delta: O_D= -0.2421589E-07 O_OD= -0.4447299E-06 O_TOT= -0.4689458E-06 <-- DLTA
 ------------------------------------------------------------------------------
 Cycle:    477
  WF centre and spread    1  (  0.000001,  0.000000,  2.852374 )     2.19937534
  WF centre and spread    2  (  0.000001,  2.852374,  0.000000 )     2.19960165
  WF centre and spread    3  (  2.852374,  0.000000,  0.000000 )     2.19960169
  Sum of centres and spreads (  2.852375,  2.852374,  2.852374 )     6.59857868
 
    477    -0.338E-06     0.0003295888        6.5985806330       3.52  <-- CONV
        O_D=      0.0000000 O_OD=      0.0320207 O_TOT=      6.5985806 <-- SPRD
 Delta: O_D= -0.8544683E-08 O_OD= -0.3293166E-06 O_TOT= -0.3378613E-06 <-- DLTA
 ------------------------------------------------------------------------------
 Cycle:    478
  WF centre and spread    1  (  0.000000, -0.000000,  2.852375 )     2.19937535
  WF centre and spread    2  (  0.000000,  2.852375, -0.000000 )     2.19960174
  WF centre and spread    3  (  2.852375, -0.000000, -0.000000 )     2.19960146
  Sum of centres and spreads (  2.852375,  2.852374,  2.852374 )     6.59857855
 
    478    -0.131E-06     0.0002182931        6.5985805018       3.53  <-- CONV
        O_D=      0.0000000 O_OD=      0.0320206 O_TOT=      6.5985805 <-- SPRD
 Delta: O_D= -0.1864622E-07 O_OD= -0.1125131E-06 O_TOT= -0.1311593E-06 <-- DLTA
 ------------------------------------------------------------------------------
 Cycle:    479
  WF centre and spread    1  (  0.000000, -0.000000,  2.852375 )     2.19937535
  WF centre and spread    2  ( -0.000000,  2.852375, -0.000000 )     2.19960181
  WF centre and spread    3  (  2.852375, -0.000000, -0.000000 )     2.19960131
  Sum of centres and spreads (  2.852375,  2.852374,  2.852374 )     6.59857846
 
    479    -0.861E-07     0.0001733650        6.5985804157       3.53  <-- CONV
        O_D=      0.0000000 O_OD=      0.0320205 O_TOT=      6.5985804 <-- SPRD
 Delta: O_D= -0.1272129E-08 O_OD= -0.8479791E-07 O_TOT= -0.8607004E-07 <-- DLTA
 ------------------------------------------------------------------------------
 Cycle:    480
  WF centre and spread    1  (  0.000000, -0.000000,  2.852375 )     2.19937532
  WF centre and spread    2  ( -0.000000,  2.852375, -0.000000 )     2.19960182
  WF centre and spread    3  (  2.852375, -0.000000, -0.000000 )     2.19960124
  Sum of centres and spreads (  2.852375,  2.852374,  2.852374 )     6.59857837
 
    480    -0.903E-07     0.0001431362        6.5985803255       3.54  <-- CONV
        O_D=      0.0000000 O_OD=      0.0320204 O_TOT=      6.5985803 <-- SPRD
 Delta: O_D=  0.1285726E-07 O_OD= -0.1031494E-06 O_TOT= -0.9029217E-07 <-- DLTA
 ------------------------------------------------------------------------------
 Cycle:    481
  WF centre and spread    1  (  0.000000, -0.000000,  2.852375 )     2.19937527
  WF centre and spread    2  ( -0.000000,  2.852375, -0.000000 )     2.19960176
  WF centre and spread    3  (  2.852375, -0.000000, -0.000000 )     2.19960125
  Sum of centres and spreads (  2.852375,  2.852374,  2.852374 )     6.59857828
 
    481    -0.891E-07     0.0002379053        6.5985802364       3.55  <-- CONV
        O_D=      0.0000000 O_OD=      0.0320203 O_TOT=      6.5985802 <-- SPRD
 Delta: O_D= -0.1338648E-07 O_OD= -0.7570859E-07 O_TOT= -0.8909507E-07 <-- DLTA
 ------------------------------------------------------------------------------
 Cycle:    482
  WF centre and spread    1  (  0.000000, -0.000000,  2.852375 )     2.19937519
  WF centre and spread    2  (  0.000000,  2.852375, -0.000000 )     2.19960165
  WF centre and spread    3  (  2.852375, -0.000000, -0.000000 )     2.19960135
  Sum of centres and spreads (  2.852375,  2.852374,  2.852374 )     6.59857820
 
    482    -0.861E-07     0.0001436238        6.5985801503       3.55  <-- CONV
        O_D=      0.0000000 O_OD=      0.0320202 O_TOT=      6.5985802 <-- SPRD
 Delta: O_D=  0.1234926E-08 O_OD= -0.8732477E-07 O_TOT= -0.8608984E-07 <-- DLTA
 ------------------------------------------------------------------------------
 Cycle:    483
  WF centre and spread    1  (  0.000001,  0.000000,  2.852374 )     2.19937507
  WF centre and spread    2  (  0.000001,  2.852374,  0.000000 )     2.19960149
  WF centre and spread    3  (  2.852374,  0.000000,  0.000000 )     2.19960151
  Sum of centres and spreads (  2.852375,  2.852374,  2.852374 )     6.59857807
 
    483    -0.131E-06     0.0001682943        6.5985800196       3.56  <-- CONV
        O_D=      0.0000000 O_OD=      0.0320201 O_TOT=      6.5985800 <-- SPRD
 Delta: O_D=  0.2061187E-07 O_OD= -0.1513082E-06 O_TOT= -0.1306963E-06 <-- DLTA
 ------------------------------------------------------------------------------
 Cycle:    484
  WF centre and spread    1  (  0.000001,  0.000001,  2.852373 )     2.19937476
  WF centre and spread    2  (  0.000001,  2.852373,  0.000000 )     2.19960115
  WF centre and spread    3  (  2.852373,  0.000001,  0.000001 )     2.19960181
  Sum of centres and spreads (  2.852375,  2.852374,  2.852374 )     6.59857773
 
    484    -0.340E-06     0.0002270101        6.5985796799       3.57  <-- CONV
        O_D=      0.0000000 O_OD=      0.0320197 O_TOT=      6.5985797 <-- SPRD
 Delta: O_D=  0.1110948E-07 O_OD= -0.3507368E-06 O_TOT= -0.3396273E-06 <-- DLTA
 ------------------------------------------------------------------------------
 Cycle:    485
  WF centre and spread    1  (  0.000002,  0.000002,  2.852371 )     2.19937441
  WF centre and spread    2  (  0.000002,  2.852371,  0.000001 )     2.19960082
  WF centre and spread    3  (  2.852371,  0.000001,  0.000002 )     2.19960203
  Sum of centres and spreads (  2.852375,  2.852374,  2.852374 )     6.59857725
 
    485    -0.476E-06     0.0003276680        6.5985792041       3.57  <-- CONV
        O_D=      0.0000001 O_OD=      0.0320192 O_TOT=      6.5985792 <-- SPRD
 Delta: O_D=  0.2948189E-07 O_OD= -0.5052921E-06 O_TOT= -0.4758102E-06 <-- DLTA
 ------------------------------------------------------------------------------
 Cycle:    486
  WF centre and spread    1  (  0.000002,  0.000002,  2.852371 )     2.19937407
  WF centre and spread    2  (  0.000003,  2.852370,  0.000001 )     2.19960062
  WF centre and spread    3  (  2.852371,  0.000001,  0.000003 )     2.19960210
  Sum of centres and spreads (  2.852375,  2.852374,  2.852374 )     6.59857680
 
    486    -0.450E-06     0.0003990333        6.5985787540       3.58  <-- CONV
        O_D=      0.0000001 O_OD=      0.0320188 O_TOT=      6.5985788 <-- SPRD
 Delta: O_D=  0.1035706E-07 O_OD= -0.4605290E-06 O_TOT= -0.4501720E-06 <-- DLTA
 ------------------------------------------------------------------------------
 Cycle:    487
  WF centre and spread    1  (  0.000002,  0.000002,  2.852371 )     2.19937399
  WF centre and spread    2  (  0.000002,  2.852371,  0.000001 )     2.19960058
  WF centre and spread    3  (  2.852371,  0.000001,  0.000002 )     2.19960178
  Sum of centres and spreads (  2.852375,  2.852374,  2.852374 )     6.59857635
 
    487    -0.452E-06     0.0004083202        6.5985783023       3.59  <-- CONV
        O_D=      0.0000001 O_OD=      0.0320183 O_TOT=      6.5985783 <-- SPRD
 Delta: O_D= -0.1298136E-07 O_OD= -0.4386671E-06 O_TOT= -0.4516485E-06 <-- DLTA
 ------------------------------------------------------------------------------
 Cycle:    488
  WF centre and spread    1  (  0.000001,  0.000001,  2.852373 )     2.19937392
  WF centre and spread    2  (  0.000001,  2.852373,  0.000000 )     2.19960065
  WF centre and spread    3  (  2.852373,  0.000001,  0.000001 )     2.19960129
  Sum of centres and spreads (  2.852375,  2.852374,  2.852374 )     6.59857586
 
    488    -0.490E-06     0.0003999519        6.5985778119       3.59  <-- CONV
        O_D=      0.0000000 O_OD=      0.0320179 O_TOT=      6.5985778 <-- SPRD
 Delta: O_D= -0.2795900E-07 O_OD= -0.4624359E-06 O_TOT= -0.4903949E-06 <-- DLTA
 ------------------------------------------------------------------------------
 Cycle:    489
  WF centre and spread    1  (  0.000001,  0.000000,  2.852374 )     2.19937389
  WF centre and spread    2  (  0.000001,  2.852374,  0.000000 )     2.19960079
  WF centre and spread    3  (  2.852374,  0.000000,  0.000000 )     2.19960082
  Sum of centres and spreads (  2.852375,  2.852374,  2.852374 )     6.59857550
 
    489    -0.359E-06     0.0003414852        6.5985774526       3.60  <-- CONV
        O_D=      0.0000000 O_OD=      0.0320175 O_TOT=      6.5985775 <-- SPRD
 Delta: O_D= -0.1175579E-07 O_OD= -0.3475693E-06 O_TOT= -0.3593251E-06 <-- DLTA
 ------------------------------------------------------------------------------
 Cycle:    490
  WF centre and spread    1  (  0.000000, -0.000000,  2.852374 )     2.19937390
  WF centre and spread    2  (  0.000000,  2.852375, -0.000000 )     2.19960088
  WF centre and spread    3  (  2.852375, -0.000000, -0.000000 )     2.19960060
  Sum of centres and spreads (  2.852375,  2.852374,  2.852374 )     6.59857538
 
    490    -0.124E-06     0.0002141354        6.5985773282       3.61  <-- CONV
        O_D=      0.0000000 O_OD=      0.0320174 O_TOT=      6.5985773 <-- SPRD
 Delta: O_D= -0.1822419E-07 O_OD= -0.1061594E-06 O_TOT= -0.1243836E-06 <-- DLTA
 ------------------------------------------------------------------------------
 Cycle:    491
  WF centre and spread    1  (  0.000000, -0.000000,  2.852375 )     2.19937390
  WF centre and spread    2  ( -0.000000,  2.852375, -0.000000 )     2.19960094
  WF centre and spread    3  (  2.852375, -0.000000, -0.000000 )     2.19960045
  Sum of centres and spreads (  2.852375,  2.852374,  2.852374 )     6.59857529
 
    491    -0.868E-07     0.0001740939        6.5985772414       3.62  <-- CONV
        O_D=      0.0000000 O_OD=      0.0320173 O_TOT=      6.5985772 <-- SPRD
 Delta: O_D= -0.1272154E-08 O_OD= -0.8549467E-07 O_TOT= -0.8676682E-07 <-- DLTA
 ------------------------------------------------------------------------------
 Cycle:    492
  WF centre and spread    1  (  0.000000, -0.000000,  2.852375 )     2.19937387
  WF centre and spread    2  ( -0.000000,  2.852375, -0.000000 )     2.19960096
  WF centre and spread    3  (  2.852375, -0.000000, -0.000000 )     2.19960038
  Sum of centres and spreads (  2.852375,  2.852374,  2.852374 )     6.59857520
 
    492    -0.913E-07     0.0001433797        6.5985771502       3.62  <-- CONV
        O_D=      0.0000000 O_OD=      0.0320172 O_TOT=      6.5985772 <-- SPRD
 Delta: O_D=  0.1260447E-07 O_OD= -0.1038660E-06 O_TOT= -0.9126148E-07 <-- DLTA
 ------------------------------------------------------------------------------
 Cycle:    493
  WF centre and spread    1  (  0.000000, -0.000000,  2.852375 )     2.19937382
  WF centre and spread    2  ( -0.000000,  2.852375, -0.000000 )     2.19960090
  WF centre and spread    3  (  2.852375, -0.000000, -0.000000 )     2.19960039
  Sum of centres and spreads (  2.852375,  2.852374,  2.852374 )     6.59857511
 
    493    -0.905E-07     0.0002388965        6.5985770597       3.63  <-- CONV
        O_D=      0.0000000 O_OD=      0.0320171 O_TOT=      6.5985771 <-- SPRD
 Delta: O_D= -0.1342799E-07 O_OD= -0.7709952E-07 O_TOT= -0.9052751E-07 <-- DLTA
 ------------------------------------------------------------------------------
 Cycle:    494
  WF centre and spread    1  (  0.000000, -0.000000,  2.852375 )     2.19937374
  WF centre and spread    2  (  0.000000,  2.852375, -0.000000 )     2.19960079
  WF centre and spread    3  (  2.852375, -0.000000, -0.000000 )     2.19960049
  Sum of centres and spreads (  2.852375,  2.852374,  2.852374 )     6.59857502
 
    494    -0.868E-07     0.0001432596        6.5985769729       3.64  <-- CONV
        O_D=      0.0000000 O_OD=      0.0320171 O_TOT=      6.5985770 <-- SPRD
 Delta: O_D=  0.1998535E-08 O_OD= -0.8880161E-07 O_TOT= -0.8680307E-07 <-- DLTA
 ------------------------------------------------------------------------------
 Cycle:    495
  WF centre and spread    1  (  0.000000,  0.000000,  2.852374 )     2.19937362
  WF centre and spread    2  (  0.000000,  2.852374,  0.000000 )     2.19960063
  WF centre and spread    3  (  2.852374,  0.000000,  0.000000 )     2.19960064
  Sum of centres and spreads (  2.852375,  2.852374,  2.852374 )     6.59857489
 
    495    -0.126E-06     0.0001718892        6.5985768468       3.64  <-- CONV
        O_D=      0.0000000 O_OD=      0.0320169 O_TOT=      6.5985768 <-- SPRD
 Delta: O_D=  0.1779305E-07 O_OD= -0.1438512E-06 O_TOT= -0.1260581E-06 <-- DLTA
 ------------------------------------------------------------------------------
 Cycle:    496
  WF centre and spread    1  (  0.000001,  0.000001,  2.852373 )     2.19937332
  WF centre and spread    2  (  0.000001,  2.852373,  0.000000 )     2.19960030
  WF centre and spread    3  (  2.852373,  0.000001,  0.000001 )     2.19960092
  Sum of centres and spreads (  2.852375,  2.852374,  2.852374 )     6.59857454
 
    496    -0.358E-06     0.0002154869        6.5985764885       3.65  <-- CONV
        O_D=      0.0000000 O_OD=      0.0320165 O_TOT=      6.5985765 <-- SPRD
 Delta: O_D=  0.1261868E-07 O_OD= -0.3709367E-06 O_TOT= -0.3583180E-06 <-- DLTA
 ------------------------------------------------------------------------------
 Cycle:    497
  WF centre and spread    1  (  0.000002,  0.000002,  2.852371 )     2.19937294
  WF centre and spread    2  (  0.000002,  2.852371,  0.000001 )     2.19959994
  WF centre and spread    3  (  2.852371,  0.000001,  0.000002 )     2.19960116
  Sum of centres and spreads (  2.852375,  2.852374,  2.852374 )     6.59857405
 
    497    -0.490E-06     0.0003424849        6.5985759981       3.66  <-- CONV
        O_D=      0.0000001 O_OD=      0.0320160 O_TOT=      6.5985760 <-- SPRD
 Delta: O_D=  0.3497929E-07 O_OD= -0.5253651E-06 O_TOT= -0.4903858E-06 <-- DLTA
 ------------------------------------------------------------------------------
 Cycle:    498
  WF centre and spread    1  (  0.000002,  0.000002,  2.852371 )     2.19937260
  WF centre and spread    2  (  0.000003,  2.852370,  0.000001 )     2.19959974
  WF centre and spread    3  (  2.852371,  0.000001,  0.000003 )     2.19960125
  Sum of centres and spreads (  2.852375,  2.852374,  2.852374 )     6.59857359
 
    498    -0.451E-06     0.0004011146        6.5985755466       3.66  <-- CONV
        O_D=      0.0000001 O_OD=      0.0320156 O_TOT=      6.5985755 <-- SPRD
 Delta: O_D=  0.9142777E-08 O_OD= -0.4606250E-06 O_TOT= -0.4514822E-06 <-- DLTA
 ------------------------------------------------------------------------------
 Cycle:    499
  WF centre and spread    1  (  0.000002,  0.000002,  2.852371 )     2.19937252
  WF centre and spread    2  (  0.000002,  2.852371,  0.000001 )     2.19959969
  WF centre and spread    3  (  2.852371,  0.000001,  0.000002 )     2.19960092
  Sum of centres and spreads (  2.852375,  2.852374,  2.852374 )     6.59857314
 
    499    -0.452E-06     0.0004111659        6.5985750944       3.67  <-- CONV
        O_D=      0.0000001 O_OD=      0.0320151 O_TOT=      6.5985751 <-- SPRD
 Delta: O_D= -0.1062049E-07 O_OD= -0.4415701E-06 O_TOT= -0.4521906E-06 <-- DLTA
 ------------------------------------------------------------------------------
 Cycle:    500
  WF centre and spread    1  (  0.000001,  0.000001,  2.852373 )     2.19937245
  WF centre and spread    2  (  0.000001,  2.852373,  0.000000 )     2.19959978
  WF centre and spread    3  (  2.852373,  0.000001,  0.000001 )     2.19960041
  Sum of centres and spreads (  2.852375,  2.852374,  2.852374 )     6.59857263
 
    500    -0.511E-06     0.0004039827        6.5985745838       3.68  <-- CONV
        O_D=      0.0000000 O_OD=      0.0320146 O_TOT=      6.5985746 <-- SPRD
 Delta: O_D= -0.3037550E-07 O_OD= -0.4801985E-06 O_TOT= -0.5105740E-06 <-- DLTA
 ------------------------------------------------------------------------------

 Writing checkpoint file mp-1672.chk... done

 Final State
  WF centre and spread    1  (  0.000001,  0.000001,  2.852373 )     2.19937245
  WF centre and spread    2  (  0.000001,  2.852373,  0.000000 )     2.19959978
  WF centre and spread    3  (  2.852373,  0.000001,  0.000001 )     2.19960041
  Sum of centres and spreads (  2.852375,  2.852374,  2.852374 )     6.59857263
 
         Spreads (Ang^2)       Omega I      =     6.566559903
        ================       Omega D      =     0.000000043
                               Omega OD     =     0.032014638
    Final Spread (Ang^2)       Omega Total  =     6.598574584
 ------------------------------------------------------------------------------
 Time for wannierise            3.676 (sec)

 Writing checkpoint file mp-1672.chk... done

 Time for plotting              0.000 (sec)
 Total Execution Time           4.987 (sec)

 *===========================================================================*
 |                             TIMING INFORMATION                            |
 *===========================================================================*
 |    Tag                                                Ncalls      Time (s)|
 |---------------------------------------------------------------------------|
 |kmesh: get                                        :         1         1.056|
 |overlap: allocate                                 :         1         0.002|
 |overlap: read                                     :         1         0.134|
 |wann: main                                        :         1         3.676|
 |plot: main                                        :         1         0.000|
 *---------------------------------------------------------------------------*
 
 All done: wannier90 exiting
