 
             +---------------------------------------------------+
             |                                                   |
             |                   WANNIER90                       |
             |                                                   |
             +---------------------------------------------------+
             |                                                   |
             |        Welcome to the Maximally-Localized         |
             |        Generalized Wannier Functions code         |
             |            http://www.wannier.org                 |
             |                                                   |
             |                                                   |
             |  Wannier90 Developer Group:                       |
             |    Giovanni Pizzi    (EPFL)                       |
             |    Valerio Vitale    (Cambridge)                  |
             |    David Vanderbilt  (Rutgers University)         |
             |    Nicola Marzari    (EPFL)                       |
             |    Ivo Souza         (Universidad del Pais Vasco) |
             |    Arash A. Mostofi  (Imperial College London)    |
             |    Jonathan R. Yates (University of Oxford)       |
             |                                                   |
             |  For the full list of Wannier90 3.x authors,      |
             |  please check the code documentation and the      |
             |  README on the GitHub page of the code            |
             |                                                   |
             |                                                   |
             |  Please cite                                      |
             |                                                   |
             |  [ref] "Wannier90 as a community code:            |
             |        new features and applications",            |
             |        G. Pizzi et al., J. Phys. Cond. Matt. 32,  |
             |        165902 (2020).                             |
             |        http://doi.org/10.1088/1361-648X/ab51ff    |
             |                                                   |
             |  in any publications arising from the use of      |
             |  this code. For the method please cite            |
             |                                                   |
             |  [ref] "Maximally Localized Generalised Wannier   |
             |         Functions for Composite Energy Bands"     |
             |         N. Marzari and D. Vanderbilt              |
             |         Phys. Rev. B 56 12847 (1997)              |
             |                                                   |
             |  [ref] "Maximally Localized Wannier Functions     |
             |         for Entangled Energy Bands"               |
             |         I. Souza, N. Marzari and D. Vanderbilt    |
             |         Phys. Rev. B 65 035109 (2001)             |
             |                                                   |
             |                                                   |
             | Copyright (c) 1996-2020                           |
             |        The Wannier90 Developer Group and          |
             |        individual contributors                    |
             |                                                   |
             |      Release: 3.1.0        5th March    2020      |
             |                                                   |
             | This program is free software; you can            |
             | redistribute it and/or modify it under the terms  |
             | of the GNU General Public License as published by |
             | the Free Software Foundation; either version 2 of |
             | the License, or (at your option) any later version|
             |                                                   |
             | This program is distributed in the hope that it   |
             | will be useful, but WITHOUT ANY WARRANTY; without |
             | even the implied warranty of MERCHANTABILITY or   |
             | FITNESS FOR A PARTICULAR PURPOSE. See the GNU     |
             | General Public License for more details.          |
             |                                                   |
             | You should have received a copy of the GNU General|
             | Public License along with this program; if not,   |
             | write to the Free Software Foundation, Inc.,      |
             | 675 Mass Ave, Cambridge, MA 02139, USA.           |
             |                                                   |
             +---------------------------------------------------+
             |    Execution started on  8Apr2024 at 15:13:25     |
             +---------------------------------------------------+
 
 ******************************************************************************
 * -> Using CODATA 2006 constant values                                       *
 *    (http://physics.nist.gov/cuu/Constants/index.html)                      *
 * -> Using Bohr value from CODATA                                            *
 ******************************************************************************
 

 Running in parallel on  16 CPUs

 
                                    ------
                                    SYSTEM
                                    ------
 
                              Lattice Vectors (Ang)
                    a_1    -2.852374   0.000000   2.852374
                    a_2     0.000000   2.852374   2.852374
                    a_3    -2.852374   2.852374   0.000000
 
                   Unit Cell Volume:      46.41404  (Ang^3)
 
                        Reciprocal-Space Vectors (Ang^-1)
                    b_1    -1.101396  -1.101396   1.101396
                    b_2     1.101396   1.101396   1.101396
                    b_3    -1.101396   1.101396  -1.101396
  
 *----------------------------------------------------------------------------*
 |   Site       Fractional Coordinate          Cartesian Coordinate (Ang)     |
 +----------------------------------------------------------------------------+
 | Ca   1   0.00000   0.00000   0.00000   |    0.00000   0.00000   0.00000    |
 | S    1   0.50000   0.50000   0.50000   |   -2.85237   2.85237   2.85237    |
 *----------------------------------------------------------------------------*
                                ------------
                                K-POINT GRID
                                ------------
  
             Grid size = 12 x 12 x 12      Total points = 1728
  
  
 *---------------------------------- MAIN ------------------------------------*
 |  Number of Wannier Functions               :                 3             |
 |  Number of Objective Wannier Functions     :                 3             |
 |  Number of input Bloch states              :                 3             |
 |  Output verbosity (1=low, 5=high)          :                 1             |
 |  Timing Level (1=low, 5=high)              :                 1             |
 |  Optimisation (0=memory, 3=speed)          :                 3             |
 |  Length Unit                               :               Ang             |
 |  Post-processing setup (write *.nnkp)      :                 F             |
 |  Using Gamma-only branch of algorithms     :                 F             |
 *----------------------------------------------------------------------------*
 *------------------------------- WANNIERISE ---------------------------------*
 |  Total number of iterations                :               500             |
 |  Number of CG steps before reset           :                 5             |
 |  Trial step length for line search         :             2.000             |
 |  Convergence tolerence                     :         0.100E-09             |
 |  Convergence window                        :                -1             |
 |  Iterations between writing output         :                 1             |
 |  Iterations between backing up to disk     :               100             |
 |  Write r^2_nm to file                      :                 F             |
 |  Write xyz WF centres to file              :                 F             |
 |  Write on-site energies <0n|H|0n> to file  :                 F             |
 |  Use guiding centre to control phases      :                 F             |
 |  Use phases for initial projections        :                 F             |
 *----------------------------------------------------------------------------*
 Time to read parameters        0.163 (sec)

 *---------------------------------- K-MESH ----------------------------------*
 +----------------------------------------------------------------------------+
 |                    Distance to Nearest-Neighbour Shells                    |
 |                    ------------------------------------                    |
 |          Shell             Distance (Ang^-1)          Multiplicity         |
 |          -----             -----------------          ------------         |
 |             1                   0.158973                      8            |
 |             2                   0.183566                      6            |
 |             3                   0.259601                     12            |
 |             4                   0.304410                     24            |
 |             5                   0.317946                      8            |
 |             6                   0.367132                      6            |
 |             7                   0.400073                     24            |
 |             8                   0.410466                     24            |
 |             9                   0.449643                     24            |
 |            10                   0.476918                     32            |
 |            11                   0.519203                     12            |
 |            12                   0.542995                     48            |
 |            13                   0.550698                     30            |
 |            14                   0.580487                     24            |
 |            15                   0.601861                     24            |
 |            16                   0.608819                     24            |
 |            17                   0.635891                      8            |
 |            18                   0.655462                     48            |
 |            19                   0.661856                     24            |
 |            20                   0.686841                     48            |
 |            21                   0.704998                     72            |
 |            22                   0.734264                      6            |
 |            23                   0.751276                     24            |
 |            24                   0.756862                     48            |
 |            25                   0.778804                     36            |
 |            26                   0.794864                     56            |
 |            27                   0.800145                     24            |
 |            28                   0.820932                     24            |
 |            29                   0.836183                     72            |
 |            30                   0.841205                     48            |
 |            31                   0.861001                     24            |
 |            32                   0.875554                     48            |
 |            33                   0.899286                     24            |
 |            34                   0.913229                     72            |
 |            35                   0.917830                     30            |
 |            36                   0.936006                     72            |
 +----------------------------------------------------------------------------+
 | The b-vectors are chosen automatically                                     |
 | The following shells are used:   1                                         |
 +----------------------------------------------------------------------------+
 |                        Shell   # Nearest-Neighbours                        |
 |                        -----   --------------------                        |
 |                          1               8                                 |
 +----------------------------------------------------------------------------+
 | Completeness relation is fully satisfied [Eq. (B1), PRB 56, 12847 (1997)]  |
 +----------------------------------------------------------------------------+
 |                  b_k Vectors (Ang^-1) and Weights (Ang^2)                  |
 |                  ----------------------------------------                  |
 |            No.         b_k(x)      b_k(y)      b_k(z)        w_b           |
 |            ---        --------------------------------     --------        |
 |             1        -0.091783    0.091783   -0.091783    14.838354        |
 |             2         0.091783    0.091783    0.091783    14.838354        |
 |             3        -0.091783   -0.091783    0.091783    14.838354        |
 |             4        -0.091783    0.091783    0.091783    14.838354        |
 |             5         0.091783   -0.091783    0.091783    14.838354        |
 |             6        -0.091783   -0.091783   -0.091783    14.838354        |
 |             7         0.091783    0.091783   -0.091783    14.838354        |
 |             8         0.091783   -0.091783   -0.091783    14.838354        |
 +----------------------------------------------------------------------------+
 |                           b_k Directions (Ang^-1)                          |
 |                           -----------------------                          |
 |            No.           x           y           z                         |
 |            ---        --------------------------------                     |
 |             1        -0.091783    0.091783   -0.091783                     |
 |             2         0.091783    0.091783    0.091783                     |
 |             3        -0.091783   -0.091783    0.091783                     |
 |             4        -0.091783    0.091783    0.091783                     |
 +----------------------------------------------------------------------------+
  
 Time to get kmesh              0.637 (sec)
 *============================================================================*
 |                              MEMORY ESTIMATE                               |
 |         Maximum RAM allocated during each phase of the calculation         |
 *============================================================================*
 |                            Wannierise:            7.00 Mb                  |
 |                          plot_wannier:            7.00 Mb                  |
 *----------------------------------------------------------------------------*
  
 Starting a new Wannier90 calculation ...


 Reading overlaps from mp-1672.mmn    :  Created on  8Apr2024 at 15:13:17

 Reading projections from mp-1672.amn :  Created on  8Apr2024 at 15:13:15  with SCDM

 Time to read overlaps          0.087 (sec)

 Writing checkpoint file mp-1672.chk... done

 
 *------------------------------- WANNIERISE ---------------------------------*
 +--------------------------------------------------------------------+<-- CONV
 | Iter  Delta Spread     RMS Gradient      Spread (Ang^2)      Time  |<-- CONV
 +--------------------------------------------------------------------+<-- CONV
 
 ------------------------------------------------------------------------------
 Initial State
  WF centre and spread    1  (  0.001430, -2.852084,  0.001429 )     2.29733442
  WF centre and spread    2  (  0.000296, -0.000474,  2.851007 )     2.29614535
  WF centre and spread    3  (  2.851007, -0.000474,  0.000295 )     2.29614564
  Sum of centres and spreads (  2.852733, -2.853031,  2.852732 )     6.88962541
 
      0     0.689E+01     0.0000000000        6.8896273660       0.00  <-- CONV
        O_D=      0.1026851 O_OD=      0.2203767 O_TOT=      6.8896274 <-- SPRD
 ------------------------------------------------------------------------------
 Cycle:      1
  WF centre and spread    1  (  0.000186, -2.852593,  0.000185 )     2.21867067
  WF centre and spread    2  ( -0.000037,  0.000036,  2.852358 )     2.21901072
  WF centre and spread    3  (  2.852358,  0.000036, -0.000037 )     2.21900709
  Sum of centres and spreads (  2.852507, -2.852521,  2.852506 )     6.65668848
 
      1    -0.233E+00     0.1146956807        6.6566904301       0.01  <-- CONV
        O_D=      0.0192382 O_OD=      0.0708867 O_TOT=      6.6566904 <-- SPRD
 Delta: O_D= -0.8344691E-01 O_OD= -0.1494900E+00 O_TOT= -0.2329369E+00 <-- DLTA
 ------------------------------------------------------------------------------
 Cycle:      2
  WF centre and spread    1  ( -0.000007, -2.852688, -0.000008 )     2.20746542
  WF centre and spread    2  ( -0.000091,  0.000117,  2.852561 )     2.20798491
  WF centre and spread    3  (  2.852561,  0.000118, -0.000092 )     2.20798365
  Sum of centres and spreads (  2.852462, -2.852453,  2.852461 )     6.62343397
 
      2    -0.333E-01     0.0868517363        6.6234359246       0.01  <-- CONV
        O_D=      0.0063397 O_OD=      0.0505307 O_TOT=      6.6234359 <-- SPRD
 Delta: O_D= -0.1289847E-01 O_OD= -0.2035603E-01 O_TOT= -0.3325451E-01 <-- DLTA
 ------------------------------------------------------------------------------
 Cycle:      3
  WF centre and spread    1  ( -0.000046, -2.852646, -0.000047 )     2.20343693
  WF centre and spread    2  ( -0.000087,  0.000112,  2.852570 )     2.20390884
  WF centre and spread    3  (  2.852571,  0.000112, -0.000088 )     2.20390818
  Sum of centres and spreads (  2.852437, -2.852422,  2.852436 )     6.61125395
 
      3    -0.122E-01     0.0589487793        6.6112559019       0.02  <-- CONV
        O_D=      0.0027876 O_OD=      0.0419027 O_TOT=      6.6112559 <-- SPRD
 Delta: O_D= -0.3552098E-02 O_OD= -0.8627924E-02 O_TOT= -0.1218002E-01 <-- DLTA
 ------------------------------------------------------------------------------
 Cycle:      4
  WF centre and spread    1  ( -0.000041, -2.852558, -0.000041 )     2.20126126
  WF centre and spread    2  ( -0.000063,  0.000079,  2.852518 )     2.20164665
  WF centre and spread    3  (  2.852518,  0.000079, -0.000063 )     2.20164728
  Sum of centres and spreads (  2.852414, -2.852401,  2.852413 )     6.60455520
 
      4    -0.670E-02     0.0478355430        6.6045571517       0.02  <-- CONV
        O_D=      0.0013003 O_OD=      0.0366913 O_TOT=      6.6045572 <-- SPRD
 Delta: O_D= -0.1487287E-02 O_OD= -0.5211464E-02 O_TOT= -0.6698750E-02 <-- DLTA
 ------------------------------------------------------------------------------
 Cycle:      5
  WF centre and spread    1  ( -0.000023, -2.852478, -0.000023 )     2.20015304
  WF centre and spread    2  ( -0.000036,  0.000046,  2.852456 )     2.20046535
  WF centre and spread    3  (  2.852456,  0.000046, -0.000037 )     2.20046636
  Sum of centres and spreads (  2.852397, -2.852387,  2.852396 )     6.60108475
 
      5    -0.347E-02     0.0364976473        6.6010867074       0.03  <-- CONV
        O_D=      0.0005614 O_OD=      0.0339598 O_TOT=      6.6010867 <-- SPRD
 Delta: O_D= -0.7389297E-03 O_OD= -0.2731515E-02 O_TOT= -0.3470444E-02 <-- DLTA
 ------------------------------------------------------------------------------
 Cycle:      6
  WF centre and spread    1  ( -0.000008, -2.852426, -0.000009 )     2.19967713
  WF centre and spread    2  ( -0.000017,  0.000023,  2.852412 )     2.19994116
  WF centre and spread    3  (  2.852412,  0.000023, -0.000018 )     2.19994217
  Sum of centres and spreads (  2.852387, -2.852379,  2.852386 )     6.59956046
 
      6    -0.152E-02     0.0247128128        6.5995624119       0.04  <-- CONV
        O_D=      0.0002174 O_OD=      0.0327794 O_TOT=      6.5995624 <-- SPRD
 Delta: O_D= -0.3439394E-03 O_OD= -0.1180356E-02 O_TOT= -0.1524296E-02 <-- DLTA
 ------------------------------------------------------------------------------
 Cycle:      7
  WF centre and spread    1  ( -0.000007, -2.852420, -0.000007 )     2.19953695
  WF centre and spread    2  ( -0.000015,  0.000020,  2.852407 )     2.19978969
  WF centre and spread    3  (  2.852407,  0.000021, -0.000015 )     2.19979062
  Sum of centres and spreads (  2.852385, -2.852379,  2.852384 )     6.59911726
 
      7    -0.443E-03     0.0158397204        6.5991192172       0.04  <-- CONV
        O_D=      0.0000947 O_OD=      0.0324589 O_TOT=      6.5991192 <-- SPRD
 Delta: O_D= -0.1227449E-03 O_OD= -0.3204497E-03 O_TOT= -0.4431946E-03 <-- DLTA
 ------------------------------------------------------------------------------
 Cycle:      8
  WF centre and spread    1  ( -0.000003, -2.852408, -0.000004 )     2.19945779
  WF centre and spread    2  ( -0.000010,  0.000015,  2.852396 )     2.19969666
  WF centre and spread    3  (  2.852396,  0.000015, -0.000010 )     2.19969707
  Sum of centres and spreads (  2.852383, -2.852379,  2.852382 )     6.59885152
 
      8    -0.266E-03     0.0099138158        6.5988534761       0.05  <-- CONV
        O_D=      0.0000322 O_OD=      0.0322557 O_TOT=      6.5988535 <-- SPRD
 Delta: O_D= -0.6245633E-04 O_OD= -0.2032848E-03 O_TOT= -0.2657412E-03 <-- DLTA
 ------------------------------------------------------------------------------
 Cycle:      9
  WF centre and spread    1  ( -0.000000, -2.852398, -0.000001 )     2.19943148
  WF centre and spread    2  ( -0.000006,  0.000010,  2.852388 )     2.19965975
  WF centre and spread    3  (  2.852388,  0.000010, -0.000007 )     2.19965979
  Sum of centres and spreads (  2.852381, -2.852378,  2.852380 )     6.59875102
 
      9    -0.101E-03     0.0066237609        6.5987529741       0.05  <-- CONV
        O_D=      0.0000125 O_OD=      0.0321749 O_TOT=      6.5987530 <-- SPRD
 Delta: O_D= -0.1976176E-04 O_OD= -0.8074015E-04 O_TOT= -0.1005019E-03 <-- DLTA
 ------------------------------------------------------------------------------
 Cycle:     10
  WF centre and spread    1  (  0.000002, -2.852390,  0.000001 )     2.19942333
  WF centre and spread    2  ( -0.000003,  0.000006,  2.852381 )     2.19964422
  WF centre and spread    3  (  2.852381,  0.000006, -0.000004 )     2.19964418
  Sum of centres and spreads (  2.852379, -2.852378,  2.852378 )     6.59871172
 
     10    -0.393E-04     0.0038780969        6.5987136726       0.06  <-- CONV
        O_D=      0.0000061 O_OD=      0.0321420 O_TOT=      6.5987137 <-- SPRD
 Delta: O_D= -0.6392169E-05 O_OD= -0.3290941E-04 O_TOT= -0.3930158E-04 <-- DLTA
 ------------------------------------------------------------------------------
 Cycle:     11
  WF centre and spread    1  (  0.000004, -2.852382,  0.000004 )     2.19942022
  WF centre and spread    2  ( -0.000000,  0.000003,  2.852375 )     2.19963503
  WF centre and spread    3  (  2.852375,  0.000003, -0.000001 )     2.19963499
  Sum of centres and spreads (  2.852378, -2.852377,  2.852377 )     6.59869024
 
     11    -0.215E-04     0.0025831921        6.5986921890       0.06  <-- CONV
        O_D=      0.0000034 O_OD=      0.0321232 O_TOT=      6.5986922 <-- SPRD
 Delta: O_D= -0.2637322E-05 O_OD= -0.1884626E-04 O_TOT= -0.2148358E-04 <-- DLTA
 ------------------------------------------------------------------------------
 Cycle:     12
  WF centre and spread    1  (  0.000005, -2.852379,  0.000004 )     2.19941956
  WF centre and spread    2  (  0.000001,  0.000001,  2.852372 )     2.19963156
  WF centre and spread    3  (  2.852372,  0.000001,  0.000000 )     2.19963150
  Sum of centres and spreads (  2.852377, -2.852377,  2.852376 )     6.59868262
 
     12    -0.761E-05     0.0018585561        6.5986845756       0.07  <-- CONV
        O_D=      0.0000021 O_OD=      0.0321169 O_TOT=      6.5986846 <-- SPRD
 Delta: O_D= -0.1319209E-05 O_OD= -0.6294166E-05 O_TOT= -0.7613376E-05 <-- DLTA
 ------------------------------------------------------------------------------
 Cycle:     13
  WF centre and spread    1  (  0.000005, -2.852378,  0.000004 )     2.19941856
  WF centre and spread    2  (  0.000001,  0.000001,  2.852372 )     2.19963029
  WF centre and spread    3  (  2.852372,  0.000001,  0.000000 )     2.19963024
  Sum of centres and spreads (  2.852377, -2.852377,  2.852376 )     6.59867909
 
     13    -0.353E-05     0.0013871895        6.5986810438       0.07  <-- CONV
        O_D=      0.0000012 O_OD=      0.0321143 O_TOT=      6.5986810 <-- SPRD
 Delta: O_D= -0.9724281E-06 O_OD= -0.2559387E-05 O_TOT= -0.3531815E-05 <-- DLTA
 ------------------------------------------------------------------------------
 Cycle:     14
  WF centre and spread    1  (  0.000005, -2.852378,  0.000004 )     2.19941793
  WF centre and spread    2  (  0.000001,  0.000000,  2.852372 )     2.19962928
  WF centre and spread    3  (  2.852372,  0.000001,  0.000000 )     2.19962920
  Sum of centres and spreads (  2.852377, -2.852377,  2.852376 )     6.59867641
 
     14    -0.268E-05     0.0009757241        6.5986783650       0.07  <-- CONV
        O_D=      0.0000007 O_OD=      0.0321121 O_TOT=      6.5986784 <-- SPRD
 Delta: O_D= -0.4897359E-06 O_OD= -0.2189030E-05 O_TOT= -0.2678766E-05 <-- DLTA
 ------------------------------------------------------------------------------
 Cycle:     15
  WF centre and spread    1  (  0.000004, -2.852377,  0.000004 )     2.19941756
  WF centre and spread    2  (  0.000001,  0.000000,  2.852372 )     2.19962864
  WF centre and spread    3  (  2.852372,  0.000000,  0.000000 )     2.19962856
  Sum of centres and spreads (  2.852377, -2.852376,  2.852376 )     6.59867475
 
     15    -0.166E-05     0.0006904760        6.5986767073       0.08  <-- CONV
        O_D=      0.0000005 O_OD=      0.0321107 O_TOT=      6.5986767 <-- SPRD
 Delta: O_D= -0.1926371E-06 O_OD= -0.1465116E-05 O_TOT= -0.1657753E-05 <-- DLTA
 ------------------------------------------------------------------------------
 Cycle:     16
  WF centre and spread    1  (  0.000003, -2.852375,  0.000003 )     2.19941732
  WF centre and spread    2  (  0.000001, -0.000000,  2.852372 )     2.19962808
  WF centre and spread    3  (  2.852372, -0.000000,  0.000000 )     2.19962799
  Sum of centres and spreads (  2.852376, -2.852376,  2.852375 )     6.59867339
 
     16    -0.136E-05     0.0006361560        6.5986753431       0.08  <-- CONV
        O_D=      0.0000003 O_OD=      0.0321095 O_TOT=      6.5986753 <-- SPRD
 Delta: O_D= -0.1754905E-06 O_OD= -0.1188693E-05 O_TOT= -0.1364183E-05 <-- DLTA
 ------------------------------------------------------------------------------
 Cycle:     17
  WF centre and spread    1  (  0.000002, -2.852375,  0.000002 )     2.19941729
  WF centre and spread    2  (  0.000001, -0.000000,  2.852372 )     2.19962767
  WF centre and spread    3  (  2.852372, -0.000000,  0.000000 )     2.19962758
  Sum of centres and spreads (  2.852376, -2.852375,  2.852375 )     6.59867255
 
     17    -0.841E-06     0.0005572299        6.5986745017       0.09  <-- CONV
        O_D=      0.0000002 O_OD=      0.0321088 O_TOT=      6.5986745 <-- SPRD
 Delta: O_D= -0.1296157E-06 O_OD= -0.7117235E-06 O_TOT= -0.8413392E-06 <-- DLTA
 ------------------------------------------------------------------------------
 Cycle:     18
  WF centre and spread    1  (  0.000002, -2.852374,  0.000001 )     2.19941739
  WF centre and spread    2  (  0.000001, -0.000000,  2.852373 )     2.19962742
  WF centre and spread    3  (  2.852373, -0.000000,  0.000000 )     2.19962732
  Sum of centres and spreads (  2.852375, -2.852375,  2.852374 )     6.59867214
 
     18    -0.411E-06     0.0003926864        6.5986740904       0.09  <-- CONV
        O_D=      0.0000001 O_OD=      0.0321084 O_TOT=      6.5986741 <-- SPRD
 Delta: O_D= -0.7923689E-07 O_OD= -0.3320852E-06 O_TOT= -0.4113220E-06 <-- DLTA
 ------------------------------------------------------------------------------
 Cycle:     19
  WF centre and spread    1  (  0.000002, -2.852374,  0.000001 )     2.19941737
  WF centre and spread    2  (  0.000001, -0.000000,  2.852373 )     2.19962733
  WF centre and spread    3  (  2.852373, -0.000000,  0.000000 )     2.19962723
  Sum of centres and spreads (  2.852375, -2.852375,  2.852374 )     6.59867193
 
     19    -0.206E-06     0.0003394135        6.5986738840       0.09  <-- CONV
        O_D=      0.0000000 O_OD=      0.0321083 O_TOT=      6.5986739 <-- SPRD
 Delta: O_D= -0.5390949E-07 O_OD= -0.1525059E-06 O_TOT= -0.2064154E-06 <-- DLTA
 ------------------------------------------------------------------------------
 Cycle:     20
  WF centre and spread    1  (  0.000001, -2.852374,  0.000001 )     2.19941741
  WF centre and spread    2  (  0.000001, -0.000000,  2.852373 )     2.19962724
  WF centre and spread    3  (  2.852373, -0.000000,  0.000000 )     2.19962714
  Sum of centres and spreads (  2.852375, -2.852375,  2.852374 )     6.59867179
 
     20    -0.140E-06     0.0002119685        6.5986737440       0.10  <-- CONV
        O_D=      0.0000000 O_OD=      0.0321082 O_TOT=      6.5986737 <-- SPRD
 Delta: O_D= -0.1886779E-07 O_OD= -0.1211203E-06 O_TOT= -0.1399881E-06 <-- DLTA
 ------------------------------------------------------------------------------
 Cycle:     21
  WF centre and spread    1  (  0.000001, -2.852374,  0.000000 )     2.19941744
  WF centre and spread    2  (  0.000001, -0.000000,  2.852374 )     2.19962717
  WF centre and spread    3  (  2.852374,  0.000000,  0.000000 )     2.19962707
  Sum of centres and spreads (  2.852375, -2.852374,  2.852374 )     6.59867168
 
     21    -0.116E-06     0.0001888153        6.5986736278       0.10  <-- CONV
        O_D=      0.0000000 O_OD=      0.0321080 O_TOT=      6.5986736 <-- SPRD
 Delta: O_D= -0.4893961E-09 O_OD= -0.1156980E-06 O_TOT= -0.1161874E-06 <-- DLTA
 ------------------------------------------------------------------------------
 Cycle:     22
  WF centre and spread    1  (  0.000000, -2.852375, -0.000000 )     2.19941738
  WF centre and spread    2  (  0.000000,  0.000000,  2.852374 )     2.19962713
  WF centre and spread    3  (  2.852374,  0.000000, -0.000000 )     2.19962704
  Sum of centres and spreads (  2.852375, -2.852374,  2.852374 )     6.59867155
 
     22    -0.122E-06     0.0001721414        6.5986735059       0.10  <-- CONV
        O_D=      0.0000000 O_OD=      0.0321079 O_TOT=      6.5986735 <-- SPRD
 Delta: O_D=  0.8675753E-08 O_OD= -0.1306172E-06 O_TOT= -0.1219414E-06 <-- DLTA
 ------------------------------------------------------------------------------
 Cycle:     23
  WF centre and spread    1  ( -0.000000, -2.852375, -0.000001 )     2.19941711
  WF centre and spread    2  (  0.000000,  0.000000,  2.852375 )     2.19962716
  WF centre and spread    3  (  2.852375,  0.000000, -0.000000 )     2.19962707
  Sum of centres and spreads (  2.852375, -2.852374,  2.852374 )     6.59867134
 
     23    -0.217E-06     0.0001895747        6.5986732892       0.11  <-- CONV
        O_D=      0.0000001 O_OD=      0.0321077 O_TOT=      6.5986733 <-- SPRD
 Delta: O_D=  0.3462972E-07 O_OD= -0.2513085E-06 O_TOT= -0.2166788E-06 <-- DLTA
 ------------------------------------------------------------------------------
 Cycle:     24
  WF centre and spread    1  ( -0.000001, -2.852375, -0.000002 )     2.19941669
  WF centre and spread    2  ( -0.000000,  0.000001,  2.852376 )     2.19962723
  WF centre and spread    3  (  2.852376,  0.000001, -0.000001 )     2.19962713
  Sum of centres and spreads (  2.852375, -2.852374,  2.852374 )     6.59867105
 
     24    -0.289E-06     0.0002738310        6.5986730002       0.11  <-- CONV
        O_D=      0.0000001 O_OD=      0.0321073 O_TOT=      6.5986730 <-- SPRD
 Delta: O_D=  0.4384350E-07 O_OD= -0.3328622E-06 O_TOT= -0.2890187E-06 <-- DLTA
 ------------------------------------------------------------------------------
 Cycle:     25
  WF centre and spread    1  ( -0.000001, -2.852375, -0.000001 )     2.19941665
  WF centre and spread    2  ( -0.000000,  0.000001,  2.852376 )     2.19962713
  WF centre and spread    3  (  2.852376,  0.000001, -0.000001 )     2.19962703
  Sum of centres and spreads (  2.852375, -2.852374,  2.852374 )     6.59867081
 
     25    -0.239E-06     0.0003678775        6.5986727614       0.11  <-- CONV
        O_D=      0.0000000 O_OD=      0.0321071 O_TOT=      6.5986728 <-- SPRD
 Delta: O_D= -0.6248287E-07 O_OD= -0.1762925E-06 O_TOT= -0.2387754E-06 <-- DLTA
 ------------------------------------------------------------------------------
 Cycle:     26
  WF centre and spread    1  ( -0.000001, -2.852375, -0.000001 )     2.19941665
  WF centre and spread    2  (  0.000000,  0.000000,  2.852375 )     2.19962705
  WF centre and spread    3  (  2.852376,  0.000000, -0.000000 )     2.19962695
  Sum of centres and spreads (  2.852375, -2.852374,  2.852374 )     6.59867065
 
     26    -0.158E-06     0.0002397963        6.5986726038       0.12  <-- CONV
        O_D=      0.0000000 O_OD=      0.0321070 O_TOT=      6.5986726 <-- SPRD
 Delta: O_D= -0.2167875E-07 O_OD= -0.1358924E-06 O_TOT= -0.1575712E-06 <-- DLTA
 ------------------------------------------------------------------------------
 Cycle:     27
  WF centre and spread    1  ( -0.000000, -2.852375, -0.000001 )     2.19941667
  WF centre and spread    2  (  0.000000,  0.000000,  2.852375 )     2.19962698
  WF centre and spread    3  (  2.852375,  0.000000, -0.000000 )     2.19962688
  Sum of centres and spreads (  2.852375, -2.852374,  2.852374 )     6.59867053
 
     27    -0.126E-06     0.0001805721        6.5986724779       0.12  <-- CONV
        O_D=      0.0000000 O_OD=      0.0321069 O_TOT=      6.5986725 <-- SPRD
 Delta: O_D=  0.5014966E-08 O_OD= -0.1309289E-06 O_TOT= -0.1259140E-06 <-- DLTA
 ------------------------------------------------------------------------------
 Cycle:     28
  WF centre and spread    1  (  0.000001, -2.852374,  0.000000 )     2.19941670
  WF centre and spread    2  (  0.000001, -0.000000,  2.852374 )     2.19962688
  WF centre and spread    3  (  2.852374, -0.000000,  0.000000 )     2.19962679
  Sum of centres and spreads (  2.852375, -2.852374,  2.852374 )     6.59867037
 
     28    -0.154E-06     0.0001955308        6.5986723242       0.13  <-- CONV
        O_D=      0.0000000 O_OD=      0.0321067 O_TOT=      6.5986723 <-- SPRD
 Delta: O_D=  0.7506983E-08 O_OD= -0.1612020E-06 O_TOT= -0.1536951E-06 <-- DLTA
 ------------------------------------------------------------------------------
 Cycle:     29
  WF centre and spread    1  (  0.000001, -2.852374,  0.000001 )     2.19941677
  WF centre and spread    2  (  0.000001, -0.000000,  2.852373 )     2.19962677
  WF centre and spread    3  (  2.852373, -0.000000,  0.000000 )     2.19962667
  Sum of centres and spreads (  2.852375, -2.852374,  2.852374 )     6.59867021
 
     29    -0.163E-06     0.0002227293        6.5986721610       0.13  <-- CONV
        O_D=      0.0000000 O_OD=      0.0321065 O_TOT=      6.5986722 <-- SPRD
 Delta: O_D=  0.3513528E-08 O_OD= -0.1668015E-06 O_TOT= -0.1632880E-06 <-- DLTA
 ------------------------------------------------------------------------------
 Cycle:     30
  WF centre and spread    1  (  0.000002, -2.852373,  0.000001 )     2.19941685
  WF centre and spread    2  (  0.000001, -0.000001,  2.852372 )     2.19962664
  WF centre and spread    3  (  2.852372, -0.000000,  0.000001 )     2.19962654
  Sum of centres and spreads (  2.852375, -2.852375,  2.852374 )     6.59867003
 
     30    -0.175E-06     0.0002140620        6.5986719859       0.13  <-- CONV
        O_D=      0.0000001 O_OD=      0.0321064 O_TOT=      6.5986720 <-- SPRD
 Delta: O_D=  0.2039490E-07 O_OD= -0.1954606E-06 O_TOT= -0.1750657E-06 <-- DLTA
 ------------------------------------------------------------------------------
 Cycle:     31
  WF centre and spread    1  (  0.000002, -2.852374,  0.000001 )     2.19941678
  WF centre and spread    2  (  0.000001, -0.000001,  2.852373 )     2.19962660
  WF centre and spread    3  (  2.852373, -0.000000,  0.000001 )     2.19962650
  Sum of centres and spreads (  2.852375, -2.852375,  2.852374 )     6.59866988
 
     31    -0.156E-06     0.0002870449        6.5986718303       0.13  <-- CONV
        O_D=      0.0000000 O_OD=      0.0321062 O_TOT=      6.5986718 <-- SPRD
 Delta: O_D= -0.3031901E-07 O_OD= -0.1252575E-06 O_TOT= -0.1555765E-06 <-- DLTA
 ------------------------------------------------------------------------------
 Cycle:     32
  WF centre and spread    1  (  0.000001, -2.852374,  0.000001 )     2.19941666
  WF centre and spread    2  (  0.000001, -0.000000,  2.852373 )     2.19962659
  WF centre and spread    3  (  2.852373, -0.000000,  0.000000 )     2.19962649
  Sum of centres and spreads (  2.852375, -2.852374,  2.852374 )     6.59866974
 
     32    -0.137E-06     0.0001963030        6.5986716938       0.14  <-- CONV
        O_D=      0.0000000 O_OD=      0.0321061 O_TOT=      6.5986717 <-- SPRD
 Delta: O_D= -0.3035203E-09 O_OD= -0.1362237E-06 O_TOT= -0.1365272E-06 <-- DLTA
 ------------------------------------------------------------------------------
 Cycle:     33
  WF centre and spread    1  (  0.000001, -2.852374,  0.000000 )     2.19941647
  WF centre and spread    2  (  0.000001, -0.000000,  2.852374 )     2.19962661
  WF centre and spread    3  (  2.852374,  0.000000,  0.000000 )     2.19962652
  Sum of centres and spreads (  2.852375, -2.852374,  2.852374 )     6.59866960
 
     33    -0.146E-06     0.0002061205        6.5986715479       0.14  <-- CONV
        O_D=      0.0000000 O_OD=      0.0321059 O_TOT=      6.5986715 <-- SPRD
 Delta: O_D= -0.6943182E-09 O_OD= -0.1451824E-06 O_TOT= -0.1458768E-06 <-- DLTA
 ------------------------------------------------------------------------------
 Cycle:     34
  WF centre and spread    1  (  0.000000, -2.852375, -0.000000 )     2.19941620
  WF centre and spread    2  (  0.000000,  0.000000,  2.852375 )     2.19962668
  WF centre and spread    3  (  2.852375,  0.000000, -0.000000 )     2.19962658
  Sum of centres and spreads (  2.852375, -2.852374,  2.852374 )     6.59866946
 
     34    -0.136E-06     0.0001918634        6.5986714118       0.14  <-- CONV
        O_D=      0.0000000 O_OD=      0.0321058 O_TOT=      6.5986714 <-- SPRD
 Delta: O_D= -0.2825582E-08 O_OD= -0.1332474E-06 O_TOT= -0.1360730E-06 <-- DLTA
 ------------------------------------------------------------------------------
 Cycle:     35
  WF centre and spread    1  ( -0.000000, -2.852375, -0.000001 )     2.19941582
  WF centre and spread    2  (  0.000000,  0.000001,  2.852376 )     2.19962679
  WF centre and spread    3  (  2.852376,  0.000001, -0.000000 )     2.19962669
  Sum of centres and spreads (  2.852375, -2.852374,  2.852374 )     6.59866929
 
     35    -0.164E-06     0.0001870161        6.5986712474       0.15  <-- CONV
        O_D=      0.0000000 O_OD=      0.0321056 O_TOT=      6.5986712 <-- SPRD
 Delta: O_D=  0.1308129E-07 O_OD= -0.1774685E-06 O_TOT= -0.1643872E-06 <-- DLTA
 ------------------------------------------------------------------------------
 Cycle:     36
  WF centre and spread    1  ( -0.000001, -2.852376, -0.000001 )     2.19941541
  WF centre and spread    2  ( -0.000000,  0.000001,  2.852376 )     2.19962688
  WF centre and spread    3  (  2.852376,  0.000001, -0.000001 )     2.19962679
  Sum of centres and spreads (  2.852375, -2.852374,  2.852374 )     6.59866909
 
     36    -0.209E-06     0.0002288374        6.5986710387       0.15  <-- CONV
        O_D=      0.0000001 O_OD=      0.0321054 O_TOT=      6.5986710 <-- SPRD
 Delta: O_D=  0.3387924E-07 O_OD= -0.2426038E-06 O_TOT= -0.2087245E-06 <-- DLTA
 ------------------------------------------------------------------------------
 Cycle:     37
  WF centre and spread    1  ( -0.000001, -2.852375, -0.000001 )     2.19941546
  WF centre and spread    2  ( -0.000000,  0.000001,  2.852376 )     2.19962677
  WF centre and spread    3  (  2.852376,  0.000001, -0.000001 )     2.19962667
  Sum of centres and spreads (  2.852375, -2.852374,  2.852374 )     6.59866890
 
     37    -0.182E-06     0.0003194773        6.5986708569       0.15  <-- CONV
        O_D=      0.0000000 O_OD=      0.0321053 O_TOT=      6.5986709 <-- SPRD
 Delta: O_D= -0.4118004E-07 O_OD= -0.1406296E-06 O_TOT= -0.1818096E-06 <-- DLTA
 ------------------------------------------------------------------------------
 Cycle:     38
  WF centre and spread    1  ( -0.000000, -2.852375, -0.000001 )     2.19941564
  WF centre and spread    2  (  0.000000,  0.000000,  2.852375 )     2.19962661
  WF centre and spread    3  (  2.852375,  0.000001, -0.000000 )     2.19962651
  Sum of centres and spreads (  2.852375, -2.852374,  2.852374 )     6.59866876
 
     38    -0.141E-06     0.0002136905        6.5986707156       0.16  <-- CONV
        O_D=      0.0000000 O_OD=      0.0321051 O_TOT=      6.5986707 <-- SPRD
 Delta: O_D= -0.8093621E-08 O_OD= -0.1332516E-06 O_TOT= -0.1413452E-06 <-- DLTA
 ------------------------------------------------------------------------------
 Cycle:     39
  WF centre and spread    1  (  0.000000, -2.852374, -0.000000 )     2.19941588
  WF centre and spread    2  (  0.000000,  0.000000,  2.852374 )     2.19962642
  WF centre and spread    3  (  2.852375,  0.000000, -0.000000 )     2.19962632
  Sum of centres and spreads (  2.852375, -2.852374,  2.852374 )     6.59866862
 
     39    -0.142E-06     0.0001871821        6.5986705736       0.16  <-- CONV
        O_D=      0.0000000 O_OD=      0.0321050 O_TOT=      6.5986706 <-- SPRD
 Delta: O_D=  0.1071854E-07 O_OD= -0.1527267E-06 O_TOT= -0.1420081E-06 <-- DLTA
 ------------------------------------------------------------------------------
 Cycle:     40
  WF centre and spread    1  (  0.000001, -2.852374,  0.000000 )     2.19941613
  WF centre and spread    2  (  0.000001, -0.000000,  2.852373 )     2.19962621
  WF centre and spread    3  (  2.852373, -0.000000,  0.000000 )     2.19962612
  Sum of centres and spreads (  2.852375, -2.852374,  2.852374 )     6.59866846
 
     40    -0.158E-06     0.0002110830        6.5986704154       0.16  <-- CONV
        O_D=      0.0000000 O_OD=      0.0321048 O_TOT=      6.5986704 <-- SPRD
 Delta: O_D= -0.1796039E-08 O_OD= -0.1563334E-06 O_TOT= -0.1581295E-06 <-- DLTA
 ------------------------------------------------------------------------------
 Cycle:     41
  WF centre and spread    1  (  0.000001, -2.852373,  0.000001 )     2.19941626
  WF centre and spread    2  (  0.000001, -0.000001,  2.852373 )     2.19962608
  WF centre and spread    3  (  2.852373, -0.000000,  0.000001 )     2.19962598
  Sum of centres and spreads (  2.852375, -2.852374,  2.852374 )     6.59866832
 
     41    -0.142E-06     0.0002155975        6.5986702737       0.16  <-- CONV
        O_D=      0.0000000 O_OD=      0.0321047 O_TOT=      6.5986703 <-- SPRD
 Delta: O_D= -0.5427918E-08 O_OD= -0.1363153E-06 O_TOT= -0.1417432E-06 <-- DLTA
 ------------------------------------------------------------------------------
 Cycle:     42
  WF centre and spread    1  (  0.000002, -2.852373,  0.000001 )     2.19941626
  WF centre and spread    2  (  0.000001, -0.000001,  2.852372 )     2.19962600
  WF centre and spread    3  (  2.852372, -0.000001,  0.000001 )     2.19962591
  Sum of centres and spreads (  2.852375, -2.852374,  2.852374 )     6.59866817
 
     42    -0.151E-06     0.0001975459        6.5986701226       0.17  <-- CONV
        O_D=      0.0000000 O_OD=      0.0321045 O_TOT=      6.5986701 <-- SPRD
 Delta: O_D=  0.2412911E-07 O_OD= -0.1752044E-06 O_TOT= -0.1510752E-06 <-- DLTA
 ------------------------------------------------------------------------------
 Cycle:     43
  WF centre and spread    1  (  0.000001, -2.852373,  0.000001 )     2.19941614
  WF centre and spread    2  (  0.000001, -0.000001,  2.852373 )     2.19962599
  WF centre and spread    3  (  2.852373, -0.000000,  0.000001 )     2.19962590
  Sum of centres and spreads (  2.852375, -2.852374,  2.852374 )     6.59866802
 
     43    -0.146E-06     0.0002750364        6.5986699770       0.17  <-- CONV
        O_D=      0.0000000 O_OD=      0.0321044 O_TOT=      6.5986700 <-- SPRD
 Delta: O_D= -0.2557183E-07 O_OD= -0.1200452E-06 O_TOT= -0.1456170E-06 <-- DLTA
 ------------------------------------------------------------------------------
 Cycle:     44
  WF centre and spread    1  (  0.000001, -2.852374,  0.000001 )     2.19941588
  WF centre and spread    2  (  0.000001, -0.000000,  2.852373 )     2.19962605
  WF centre and spread    3  (  2.852373, -0.000000,  0.000000 )     2.19962596
  Sum of centres and spreads (  2.852375, -2.852374,  2.852374 )     6.59866789
 
     44    -0.136E-06     0.0001934679        6.5986698413       0.17  <-- CONV
        O_D=      0.0000000 O_OD=      0.0321042 O_TOT=      6.5986698 <-- SPRD
 Delta: O_D=  0.5663113E-08 O_OD= -0.1413460E-06 O_TOT= -0.1356829E-06 <-- DLTA
 ------------------------------------------------------------------------------
 Cycle:     45
  WF centre and spread    1  (  0.000000, -2.852374, -0.000000 )     2.19941549
  WF centre and spread    2  (  0.000000,  0.000000,  2.852374 )     2.19962617
  WF centre and spread    3  (  2.852374,  0.000000, -0.000000 )     2.19962607
  Sum of centres and spreads (  2.852375, -2.852374,  2.852374 )     6.59866773
 
     45    -0.158E-06     0.0002138480        6.5986696833       0.18  <-- CONV
        O_D=      0.0000000 O_OD=      0.0321041 O_TOT=      6.5986697 <-- SPRD
 Delta: O_D= -0.9682726E-11 O_OD= -0.1580404E-06 O_TOT= -0.1580501E-06 <-- DLTA
 ------------------------------------------------------------------------------
 Cycle:     46
  WF centre and spread    1  ( -0.000000, -2.852375, -0.000001 )     2.19941511
  WF centre and spread    2  (  0.000000,  0.000000,  2.852375 )     2.19962629
  WF centre and spread    3  (  2.852375,  0.000000, -0.000000 )     2.19962619
  Sum of centres and spreads (  2.852375, -2.852374,  2.852374 )     6.59866759
 
     46    -0.143E-06     0.0002012808        6.5986695406       0.18  <-- CONV
        O_D=      0.0000000 O_OD=      0.0321039 O_TOT=      6.5986695 <-- SPRD
 Delta: O_D= -0.9256442E-08 O_OD= -0.1334316E-06 O_TOT= -0.1426880E-06 <-- DLTA
 ------------------------------------------------------------------------------
 Cycle:     47
  WF centre and spread    1  ( -0.000000, -2.852375, -0.000001 )     2.19941477
  WF centre and spread    2  ( -0.000000,  0.000001,  2.852376 )     2.19962638
  WF centre and spread    3  (  2.852376,  0.000001, -0.000001 )     2.19962629
  Sum of centres and spreads (  2.852375, -2.852374,  2.852374 )     6.59866744
 
     47    -0.144E-06     0.0001822312        6.5986693961       0.18  <-- CONV
        O_D=      0.0000000 O_OD=      0.0321038 O_TOT=      6.5986694 <-- SPRD
 Delta: O_D=  0.8921212E-08 O_OD= -0.1533604E-06 O_TOT= -0.1444392E-06 <-- DLTA
 ------------------------------------------------------------------------------
 Cycle:     48
  WF centre and spread    1  ( -0.000001, -2.852376, -0.000001 )     2.19941451
  WF centre and spread    2  ( -0.000000,  0.000001,  2.852376 )     2.19962643
  WF centre and spread    3  (  2.852376,  0.000001, -0.000001 )     2.19962633
  Sum of centres and spreads (  2.852375, -2.852374,  2.852374 )     6.59866726
 
     48    -0.180E-06     0.0002130212        6.5986692166       0.18  <-- CONV
        O_D=      0.0000001 O_OD=      0.0321036 O_TOT=      6.5986692 <-- SPRD
 Delta: O_D=  0.3751719E-07 O_OD= -0.2170444E-06 O_TOT= -0.1795272E-06 <-- DLTA
 ------------------------------------------------------------------------------
 Cycle:     49
  WF centre and spread    1  ( -0.000001, -2.852375, -0.000001 )     2.19941458
  WF centre and spread    2  ( -0.000000,  0.000001,  2.852376 )     2.19962630
  WF centre and spread    3  (  2.852376,  0.000001, -0.000001 )     2.19962621
  Sum of centres and spreads (  2.852375, -2.852374,  2.852374 )     6.59866709
 
     49    -0.175E-06     0.0003104238        6.5986690413       0.19  <-- CONV
        O_D=      0.0000000 O_OD=      0.0321034 O_TOT=      6.5986690 <-- SPRD
 Delta: O_D= -0.3883273E-07 O_OD= -0.1364732E-06 O_TOT= -0.1753059E-06 <-- DLTA
 ------------------------------------------------------------------------------
 Cycle:     50
  WF centre and spread    1  ( -0.000000, -2.852375, -0.000001 )     2.19941478
  WF centre and spread    2  (  0.000000,  0.000000,  2.852375 )     2.19962613
  WF centre and spread    3  (  2.852375,  0.000001, -0.000000 )     2.19962604
  Sum of centres and spreads (  2.852375, -2.852374,  2.852374 )     6.59866695
 
     50    -0.136E-06     0.0002116096        6.5986689050       0.19  <-- CONV
        O_D=      0.0000000 O_OD=      0.0321033 O_TOT=      6.5986689 <-- SPRD
 Delta: O_D= -0.7966324E-08 O_OD= -0.1283155E-06 O_TOT= -0.1362818E-06 <-- DLTA
 ------------------------------------------------------------------------------
 Cycle:     51
  WF centre and spread    1  (  0.000000, -2.852374, -0.000000 )     2.19941508
  WF centre and spread    2  (  0.000000,  0.000000,  2.852374 )     2.19962592
  WF centre and spread    3  (  2.852374,  0.000000, -0.000000 )     2.19962582
  Sum of centres and spreads (  2.852375, -2.852374,  2.852374 )     6.59866681
 
     51    -0.138E-06     0.0001818559        6.5986687666       0.19  <-- CONV
        O_D=      0.0000000 O_OD=      0.0321032 O_TOT=      6.5986688 <-- SPRD
 Delta: O_D=  0.1315088E-07 O_OD= -0.1515490E-06 O_TOT= -0.1383981E-06 <-- DLTA
 ------------------------------------------------------------------------------
 Cycle:     52
  WF centre and spread    1  (  0.000001, -2.852374,  0.000001 )     2.19941538
  WF centre and spread    2  (  0.000001, -0.000000,  2.852373 )     2.19962568
  WF centre and spread    3  (  2.852373, -0.000000,  0.000000 )     2.19962559
  Sum of centres and spreads (  2.852375, -2.852374,  2.852374 )     6.59866665
 
     52    -0.167E-06     0.0002141380        6.5986686001       0.19  <-- CONV
        O_D=      0.0000000 O_OD=      0.0321030 O_TOT=      6.5986686 <-- SPRD
 Delta: O_D= -0.1030330E-08 O_OD= -0.1655225E-06 O_TOT= -0.1665528E-06 <-- DLTA
 ------------------------------------------------------------------------------
 Cycle:     53
  WF centre and spread    1  (  0.000001, -2.852373,  0.000001 )     2.19941552
  WF centre and spread    2  (  0.000001, -0.000001,  2.852373 )     2.19962554
  WF centre and spread    3  (  2.852373, -0.000001,  0.000001 )     2.19962544
  Sum of centres and spreads (  2.852375, -2.852374,  2.852374 )     6.59866650
 
     53    -0.146E-06     0.0002203306        6.5986684542       0.20  <-- CONV
        O_D=      0.0000000 O_OD=      0.0321029 O_TOT=      6.5986685 <-- SPRD
 Delta: O_D= -0.5468508E-08 O_OD= -0.1404242E-06 O_TOT= -0.1458927E-06 <-- DLTA
 ------------------------------------------------------------------------------
 Cycle:     54
  WF centre and spread    1  (  0.000002, -2.852373,  0.000001 )     2.19941550
  WF centre and spread    2  (  0.000001, -0.000001,  2.852372 )     2.19962547
  WF centre and spread    3  (  2.852372, -0.000001,  0.000001 )     2.19962538
  Sum of centres and spreads (  2.852375, -2.852374,  2.852374 )     6.59866635
 
     54    -0.149E-06     0.0002010324        6.5986683048       0.20  <-- CONV
        O_D=      0.0000001 O_OD=      0.0321027 O_TOT=      6.5986683 <-- SPRD
 Delta: O_D=  0.2622953E-07 O_OD= -0.1756294E-06 O_TOT= -0.1493998E-06 <-- DLTA
 ------------------------------------------------------------------------------
 Cycle:     55
  WF centre and spread    1  (  0.000001, -2.852373,  0.000001 )     2.19941536
  WF centre and spread    2  (  0.000001, -0.000001,  2.852373 )     2.19962547
  WF centre and spread    3  (  2.852373, -0.000001,  0.000001 )     2.19962537
  Sum of centres and spreads (  2.852375, -2.852374,  2.852374 )     6.59866620
 
     55    -0.148E-06     0.0002817132        6.5986681571       0.20  <-- CONV
        O_D=      0.0000000 O_OD=      0.0321026 O_TOT=      6.5986682 <-- SPRD
 Delta: O_D= -0.2644286E-07 O_OD= -0.1212294E-06 O_TOT= -0.1476722E-06 <-- DLTA
 ------------------------------------------------------------------------------
 Cycle:     56
  WF centre and spread    1  (  0.000001, -2.852374,  0.000001 )     2.19941508
  WF centre and spread    2  (  0.000001, -0.000000,  2.852373 )     2.19962554
  WF centre and spread    3  (  2.852373, -0.000000,  0.000000 )     2.19962544
  Sum of centres and spreads (  2.852375, -2.852374,  2.852374 )     6.59866606
 
     56    -0.143E-06     0.0001991800        6.5986680137       0.20  <-- CONV
        O_D=      0.0000000 O_OD=      0.0321024 O_TOT=      6.5986680 <-- SPRD
 Delta: O_D=  0.3782880E-08 O_OD= -0.1472206E-06 O_TOT= -0.1434378E-06 <-- DLTA
 ------------------------------------------------------------------------------
 Cycle:     57
  WF centre and spread    1  (  0.000000, -2.852374, -0.000000 )     2.19941464
  WF centre and spread    2  (  0.000000,  0.000000,  2.852374 )     2.19962567
  WF centre and spread    3  (  2.852374,  0.000000, -0.000000 )     2.19962558
  Sum of centres and spreads (  2.852375, -2.852374,  2.852374 )     6.59866589
 
     57    -0.168E-06     0.0002152743        6.5986678453       0.21  <-- CONV
        O_D=      0.0000000 O_OD=      0.0321022 O_TOT=      6.5986678 <-- SPRD
 Delta: O_D= -0.8882199E-09 O_OD= -0.1674557E-06 O_TOT= -0.1683439E-06 <-- DLTA
 ------------------------------------------------------------------------------
 Cycle:     58
  WF centre and spread    1  ( -0.000000, -2.852375, -0.000001 )     2.19941424
  WF centre and spread    2  (  0.000000,  0.000000,  2.852375 )     2.19962580
  WF centre and spread    3  (  2.852375,  0.000000, -0.000000 )     2.19962571
  Sum of centres and spreads (  2.852375, -2.852374,  2.852374 )     6.59866575
 
     58    -0.139E-06     0.0002022949        6.5986677061       0.21  <-- CONV
        O_D=      0.0000000 O_OD=      0.0321021 O_TOT=      6.5986677 <-- SPRD
 Delta: O_D= -0.9660784E-08 O_OD= -0.1295633E-06 O_TOT= -0.1392241E-06 <-- DLTA
 ------------------------------------------------------------------------------
 Cycle:     59
  WF centre and spread    1  ( -0.000000, -2.852375, -0.000001 )     2.19941391
  WF centre and spread    2  ( -0.000000,  0.000001,  2.852376 )     2.19962590
  WF centre and spread    3  (  2.852376,  0.000001, -0.000001 )     2.19962580
  Sum of centres and spreads (  2.852375, -2.852374,  2.852374 )     6.59866562
 
     59    -0.137E-06     0.0001799028        6.5986675694       0.21  <-- CONV
        O_D=      0.0000000 O_OD=      0.0321020 O_TOT=      6.5986676 <-- SPRD
 Delta: O_D=  0.6274110E-08 O_OD= -0.1429793E-06 O_TOT= -0.1367052E-06 <-- DLTA
 ------------------------------------------------------------------------------
 Cycle:     60
  WF centre and spread    1  ( -0.000001, -2.852376, -0.000001 )     2.19941369
  WF centre and spread    2  ( -0.000000,  0.000001,  2.852376 )     2.19962593
  WF centre and spread    3  (  2.852376,  0.000001, -0.000001 )     2.19962583
  Sum of centres and spreads (  2.852375, -2.852374,  2.852374 )     6.59866545
 
     60    -0.169E-06     0.0002022432        6.5986674006       0.21  <-- CONV
        O_D=      0.0000001 O_OD=      0.0321018 O_TOT=      6.5986674 <-- SPRD
 Delta: O_D=  0.3652755E-07 O_OD= -0.2053518E-06 O_TOT= -0.1688243E-06 <-- DLTA
 ------------------------------------------------------------------------------
 Cycle:     61
  WF centre and spread    1  ( -0.000000, -2.852375, -0.000001 )     2.19941375
  WF centre and spread    2  ( -0.000000,  0.000001,  2.852376 )     2.19962582
  WF centre and spread    3  (  2.852376,  0.000001, -0.000001 )     2.19962572
  Sum of centres and spreads (  2.852375, -2.852374,  2.852374 )     6.59866529
 
     61    -0.162E-06     0.0003013731        6.5986672390       0.22  <-- CONV
        O_D=      0.0000000 O_OD=      0.0321016 O_TOT=      6.5986672 <-- SPRD
 Delta: O_D= -0.3660556E-07 O_OD= -0.1249697E-06 O_TOT= -0.1615752E-06 <-- DLTA
 ------------------------------------------------------------------------------
 Cycle:     62
  WF centre and spread    1  ( -0.000000, -2.852375, -0.000001 )     2.19941396
  WF centre and spread    2  (  0.000000,  0.000000,  2.852375 )     2.19962564
  WF centre and spread    3  (  2.852375,  0.000001, -0.000000 )     2.19962555
  Sum of centres and spreads (  2.852375, -2.852374,  2.852374 )     6.59866515
 
     62    -0.132E-06     0.0002018021        6.5986671066       0.22  <-- CONV
        O_D=      0.0000000 O_OD=      0.0321015 O_TOT=      6.5986671 <-- SPRD
 Delta: O_D= -0.5831774E-08 O_OD= -0.1265151E-06 O_TOT= -0.1323469E-06 <-- DLTA
 ------------------------------------------------------------------------------
 Cycle:     63
  WF centre and spread    1  (  0.000000, -2.852374, -0.000000 )     2.19941425
  WF centre and spread    2  (  0.000000,  0.000000,  2.852374 )     2.19962543
  WF centre and spread    3  (  2.852374,  0.000000, -0.000000 )     2.19962534
  Sum of centres and spreads (  2.852375, -2.852374,  2.852374 )     6.59866502
 
     63    -0.139E-06     0.0001821357        6.5986669678       0.22  <-- CONV
        O_D=      0.0000000 O_OD=      0.0321014 O_TOT=      6.5986670 <-- SPRD
 Delta: O_D=  0.1025022E-07 O_OD= -0.1490558E-06 O_TOT= -0.1388056E-06 <-- DLTA
 ------------------------------------------------------------------------------
 Cycle:     64
  WF centre and spread    1  (  0.000001, -2.852374,  0.000001 )     2.19941455
  WF centre and spread    2  (  0.000001, -0.000000,  2.852373 )     2.19962519
  WF centre and spread    3  (  2.852373, -0.000000,  0.000000 )     2.19962510
  Sum of centres and spreads (  2.852375, -2.852374,  2.852374 )     6.59866485
 
     64    -0.169E-06     0.0002048316        6.5986667984       0.22  <-- CONV
        O_D=      0.0000000 O_OD=      0.0321012 O_TOT=      6.5986668 <-- SPRD
 Delta: O_D=  0.2148958E-08 O_OD= -0.1716185E-06 O_TOT= -0.1694695E-06 <-- DLTA
 ------------------------------------------------------------------------------
 Cycle:     65
  WF centre and spread    1  (  0.000001, -2.852373,  0.000001 )     2.19941471
  WF centre and spread    2  (  0.000001, -0.000001,  2.852373 )     2.19962504
  WF centre and spread    3  (  2.852373, -0.000001,  0.000001 )     2.19962495
  Sum of centres and spreads (  2.852375, -2.852374,  2.852374 )     6.59866470
 
     65    -0.150E-06     0.0002229070        6.5986666479       0.23  <-- CONV
        O_D=      0.0000000 O_OD=      0.0321010 O_TOT=      6.5986666 <-- SPRD
 Delta: O_D= -0.4121678E-08 O_OD= -0.1463370E-06 O_TOT= -0.1504587E-06 <-- DLTA
 ------------------------------------------------------------------------------
 Cycle:     66
  WF centre and spread    1  (  0.000002, -2.852373,  0.000001 )     2.19941470
  WF centre and spread    2  (  0.000001, -0.000001,  2.852372 )     2.19962497
  WF centre and spread    3  (  2.852372, -0.000001,  0.000001 )     2.19962487
  Sum of centres and spreads (  2.852375, -2.852374,  2.852374 )     6.59866454
 
     66    -0.153E-06     0.0002055397        6.5986664950       0.23  <-- CONV
        O_D=      0.0000001 O_OD=      0.0321009 O_TOT=      6.5986665 <-- SPRD
 Delta: O_D=  0.2677211E-07 O_OD= -0.1796809E-06 O_TOT= -0.1529087E-06 <-- DLTA
 ------------------------------------------------------------------------------
 Cycle:     67
  WF centre and spread    1  (  0.000001, -2.852373,  0.000001 )     2.19941456
  WF centre and spread    2  (  0.000001, -0.000001,  2.852373 )     2.19962496
  WF centre and spread    3  (  2.852373, -0.000001,  0.000001 )     2.19962487
  Sum of centres and spreads (  2.852375, -2.852374,  2.852374 )     6.59866439
 
     67    -0.152E-06     0.0002856224        6.5986663426       0.23  <-- CONV
        O_D=      0.0000000 O_OD=      0.0321007 O_TOT=      6.5986663 <-- SPRD
 Delta: O_D= -0.2664437E-07 O_OD= -0.1257769E-06 O_TOT= -0.1524213E-06 <-- DLTA
 ------------------------------------------------------------------------------
 Cycle:     68
  WF centre and spread    1  (  0.000001, -2.852374,  0.000001 )     2.19941426
  WF centre and spread    2  (  0.000001, -0.000000,  2.852373 )     2.19962504
  WF centre and spread    3  (  2.852373, -0.000000,  0.000000 )     2.19962494
  Sum of centres and spreads (  2.852375, -2.852374,  2.852374 )     6.59866424
 
     68    -0.153E-06     0.0002047389        6.5986661898       0.23  <-- CONV
        O_D=      0.0000000 O_OD=      0.0321006 O_TOT=      6.5986662 <-- SPRD
 Delta: O_D=  0.4067398E-08 O_OD= -0.1568910E-06 O_TOT= -0.1528236E-06 <-- DLTA
 ------------------------------------------------------------------------------
 Cycle:     69
  WF centre and spread    1  (  0.000000, -2.852374, -0.000000 )     2.19941381
  WF centre and spread    2  (  0.000000,  0.000000,  2.852374 )     2.19962518
  WF centre and spread    3  (  2.852374,  0.000000, -0.000000 )     2.19962508
  Sum of centres and spreads (  2.852375, -2.852374,  2.852374 )     6.59866406
 
     69    -0.173E-06     0.0002213890        6.5986660166       0.23  <-- CONV
        O_D=      0.0000000 O_OD=      0.0321004 O_TOT=      6.5986660 <-- SPRD
 Delta: O_D= -0.3238729E-08 O_OD= -0.1699268E-06 O_TOT= -0.1731656E-06 <-- DLTA
 ------------------------------------------------------------------------------
 Cycle:     70
  WF centre and spread    1  ( -0.000000, -2.852375, -0.000001 )     2.19941342
  WF centre and spread    2  (  0.000000,  0.000000,  2.852375 )     2.19962530
  WF centre and spread    3  (  2.852375,  0.000000, -0.000000 )     2.19962521
  Sum of centres and spreads (  2.852375, -2.852374,  2.852374 )     6.59866393
 
     70    -0.137E-06     0.0002018310        6.5986658795       0.24  <-- CONV
        O_D=      0.0000000 O_OD=      0.0321003 O_TOT=      6.5986659 <-- SPRD
 Delta: O_D= -0.1088998E-07 O_OD= -0.1262146E-06 O_TOT= -0.1371046E-06 <-- DLTA
 ------------------------------------------------------------------------------
 Cycle:     71
  WF centre and spread    1  ( -0.000000, -2.852375, -0.000001 )     2.19941310
  WF centre and spread    2  ( -0.000000,  0.000001,  2.852376 )     2.19962540
  WF centre and spread    3  (  2.852376,  0.000001, -0.000001 )     2.19962530
  Sum of centres and spreads (  2.852375, -2.852374,  2.852374 )     6.59866380
 
     71    -0.132E-06     0.0001738508        6.5986657478       0.24  <-- CONV
        O_D=      0.0000000 O_OD=      0.0321001 O_TOT=      6.5986657 <-- SPRD
 Delta: O_D=  0.6053675E-08 O_OD= -0.1377577E-06 O_TOT= -0.1317040E-06 <-- DLTA
 ------------------------------------------------------------------------------
 Cycle:     72
  WF centre and spread    1  ( -0.000001, -2.852376, -0.000001 )     2.19941289
  WF centre and spread    2  ( -0.000000,  0.000001,  2.852376 )     2.19962542
  WF centre and spread    3  (  2.852376,  0.000001, -0.000001 )     2.19962532
  Sum of centres and spreads (  2.852375, -2.852374,  2.852374 )     6.59866363
 
     72    -0.161E-06     0.0001946321        6.5986655869       0.24  <-- CONV
        O_D=      0.0000001 O_OD=      0.0321000 O_TOT=      6.5986656 <-- SPRD
 Delta: O_D=  0.3728469E-07 O_OD= -0.1981673E-06 O_TOT= -0.1608826E-06 <-- DLTA
 ------------------------------------------------------------------------------
 Cycle:     73
  WF centre and spread    1  ( -0.000000, -2.852375, -0.000001 )     2.19941295
  WF centre and spread    2  ( -0.000000,  0.000001,  2.852376 )     2.19962531
  WF centre and spread    3  (  2.852376,  0.000001, -0.000001 )     2.19962522
  Sum of centres and spreads (  2.852375, -2.852374,  2.852374 )     6.59866348
 
     73    -0.153E-06     0.0002967666        6.5986654338       0.24  <-- CONV
        O_D=      0.0000000 O_OD=      0.0320998 O_TOT=      6.5986654 <-- SPRD
 Delta: O_D= -0.3688175E-07 O_OD= -0.1161912E-06 O_TOT= -0.1530729E-06 <-- DLTA
 ------------------------------------------------------------------------------
 Cycle:     74
  WF centre and spread    1  ( -0.000000, -2.852375, -0.000001 )     2.19941316
  WF centre and spread    2  (  0.000000,  0.000000,  2.852375 )     2.19962515
  WF centre and spread    3  (  2.852375,  0.000000, -0.000000 )     2.19962505
  Sum of centres and spreads (  2.852375, -2.852374,  2.852374 )     6.59866336
 
     74    -0.126E-06     0.0001949101        6.5986653080       0.25  <-- CONV
        O_D=      0.0000000 O_OD=      0.0320997 O_TOT=      6.5986653 <-- SPRD
 Delta: O_D= -0.5693342E-08 O_OD= -0.1201452E-06 O_TOT= -0.1258385E-06 <-- DLTA
 ------------------------------------------------------------------------------
 Cycle:     75
  WF centre and spread    1  (  0.000000, -2.852374, -0.000000 )     2.19941344
  WF centre and spread    2  (  0.000000,  0.000000,  2.852374 )     2.19962494
  WF centre and spread    3  (  2.852374,  0.000000, -0.000000 )     2.19962484
  Sum of centres and spreads (  2.852375, -2.852374,  2.852374 )     6.59866322
 
     75    -0.135E-06     0.0001776230        6.5986651730       0.25  <-- CONV
        O_D=      0.0000000 O_OD=      0.0320996 O_TOT=      6.5986652 <-- SPRD
 Delta: O_D=  0.1284433E-07 O_OD= -0.1478750E-06 O_TOT= -0.1350306E-06 <-- DLTA
 ------------------------------------------------------------------------------
 Cycle:     76
  WF centre and spread    1  (  0.000001, -2.852374,  0.000001 )     2.19941376
  WF centre and spread    2  (  0.000001, -0.000000,  2.852373 )     2.19962469
  WF centre and spread    3  (  2.852373, -0.000000,  0.000000 )     2.19962460
  Sum of centres and spreads (  2.852375, -2.852374,  2.852374 )     6.59866304
 
     76    -0.177E-06     0.0002095614        6.5986649958       0.25  <-- CONV
        O_D=      0.0000000 O_OD=      0.0320994 O_TOT=      6.5986650 <-- SPRD
 Delta: O_D=  0.3226827E-08 O_OD= -0.1804099E-06 O_TOT= -0.1771831E-06 <-- DLTA
 ------------------------------------------------------------------------------
 Cycle:     77
  WF centre and spread    1  (  0.000001, -2.852373,  0.000001 )     2.19941392
  WF centre and spread    2  (  0.000001, -0.000001,  2.852372 )     2.19962453
  WF centre and spread    3  (  2.852372, -0.000001,  0.000001 )     2.19962443
  Sum of centres and spreads (  2.852375, -2.852374,  2.852374 )     6.59866288
 
     77    -0.165E-06     0.0002303905        6.5986648303       0.25  <-- CONV
        O_D=      0.0000000 O_OD=      0.0320992 O_TOT=      6.5986648 <-- SPRD
 Delta: O_D= -0.2751183E-08 O_OD= -0.1627240E-06 O_TOT= -0.1654752E-06 <-- DLTA
 ------------------------------------------------------------------------------
 Cycle:     78
  WF centre and spread    1  (  0.000002, -2.852373,  0.000001 )     2.19941390
  WF centre and spread    2  (  0.000001, -0.000001,  2.852372 )     2.19962445
  WF centre and spread    3  (  2.852372, -0.000001,  0.000001 )     2.19962436
  Sum of centres and spreads (  2.852375, -2.852374,  2.852374 )     6.59866272
 
     78    -0.161E-06     0.0002180114        6.5986646688       0.25  <-- CONV
        O_D=      0.0000001 O_OD=      0.0320990 O_TOT=      6.5986647 <-- SPRD
 Delta: O_D=  0.2826826E-07 O_OD= -0.1897470E-06 O_TOT= -0.1614787E-06 <-- DLTA
 ------------------------------------------------------------------------------
 Cycle:     79
  WF centre and spread    1  (  0.000001, -2.852373,  0.000001 )     2.19941376
  WF centre and spread    2  (  0.000001, -0.000001,  2.852372 )     2.19962445
  WF centre and spread    3  (  2.852372, -0.000001,  0.000001 )     2.19962435
  Sum of centres and spreads (  2.852375, -2.852374,  2.852374 )     6.59866255
 
     79    -0.164E-06     0.0002956949        6.5986645045       0.26  <-- CONV
        O_D=      0.0000000 O_OD=      0.0320989 O_TOT=      6.5986645 <-- SPRD
 Delta: O_D= -0.2740147E-07 O_OD= -0.1368872E-06 O_TOT= -0.1642887E-06 <-- DLTA
 ------------------------------------------------------------------------------
 Cycle:     80
  WF centre and spread    1  (  0.000001, -2.852374,  0.000001 )     2.19941344
  WF centre and spread    2  (  0.000001, -0.000000,  2.852373 )     2.19962452
  WF centre and spread    3  (  2.852373, -0.000000,  0.000000 )     2.19962443
  Sum of centres and spreads (  2.852375, -2.852374,  2.852374 )     6.59866238
 
     80    -0.169E-06     0.0002178755        6.5986643356       0.26  <-- CONV
        O_D=      0.0000000 O_OD=      0.0320987 O_TOT=      6.5986643 <-- SPRD
 Delta: O_D=  0.2230369E-09 O_OD= -0.1691177E-06 O_TOT= -0.1688947E-06 <-- DLTA
 ------------------------------------------------------------------------------
 Cycle:     81
  WF centre and spread    1  (  0.000000, -2.852374, -0.000000 )     2.19941298
  WF centre and spread    2  (  0.000000,  0.000000,  2.852374 )     2.19962466
  WF centre and spread    3  (  2.852374,  0.000000, -0.000000 )     2.19962456
  Sum of centres and spreads (  2.852375, -2.852374,  2.852374 )     6.59866220
 
     81    -0.182E-06     0.0002246200        6.5986641540       0.26  <-- CONV
        O_D=      0.0000000 O_OD=      0.0320986 O_TOT=      6.5986642 <-- SPRD
 Delta: O_D= -0.4813623E-08 O_OD= -0.1768484E-06 O_TOT= -0.1816620E-06 <-- DLTA
 ------------------------------------------------------------------------------
 Cycle:     82
  WF centre and spread    1  ( -0.000000, -2.852375, -0.000001 )     2.19941259
  WF centre and spread    2  (  0.000000,  0.000000,  2.852375 )     2.19962479
  WF centre and spread    3  (  2.852375,  0.000000, -0.000000 )     2.19962469
  Sum of centres and spreads (  2.852375, -2.852374,  2.852374 )     6.59866207
 
     82    -0.134E-06     0.0002005660        6.5986640195       0.26  <-- CONV
        O_D=      0.0000000 O_OD=      0.0320984 O_TOT=      6.5986640 <-- SPRD
 Delta: O_D= -0.1074303E-07 O_OD= -0.1237220E-06 O_TOT= -0.1344650E-06 <-- DLTA
 ------------------------------------------------------------------------------
 Cycle:     83
  WF centre and spread    1  ( -0.000000, -2.852375, -0.000001 )     2.19941228
  WF centre and spread    2  (  0.000000,  0.000001,  2.852375 )     2.19962488
  WF centre and spread    3  (  2.852376,  0.000001, -0.000000 )     2.19962478
  Sum of centres and spreads (  2.852375, -2.852374,  2.852374 )     6.59866194
 
     83    -0.124E-06     0.0001727973        6.5986638956       0.27  <-- CONV
        O_D=      0.0000000 O_OD=      0.0320983 O_TOT=      6.5986639 <-- SPRD
 Delta: O_D=  0.4522703E-08 O_OD= -0.1284106E-06 O_TOT= -0.1238879E-06 <-- DLTA
 ------------------------------------------------------------------------------
 Cycle:     84
  WF centre and spread    1  ( -0.000000, -2.852376, -0.000001 )     2.19941207
  WF centre and spread    2  ( -0.000000,  0.000001,  2.852376 )     2.19962491
  WF centre and spread    3  (  2.852376,  0.000001, -0.000001 )     2.19962481
  Sum of centres and spreads (  2.852375, -2.852374,  2.852374 )     6.59866179
 
     84    -0.148E-06     0.0001859973        6.5986637474       0.27  <-- CONV
        O_D=      0.0000001 O_OD=      0.0320981 O_TOT=      6.5986637 <-- SPRD
 Delta: O_D=  0.3615126E-07 O_OD= -0.1843454E-06 O_TOT= -0.1481942E-06 <-- DLTA
 ------------------------------------------------------------------------------
 Cycle:     85
  WF centre and spread    1  ( -0.000000, -2.852375, -0.000001 )     2.19941213
  WF centre and spread    2  (  0.000000,  0.000001,  2.852376 )     2.19962481
  WF centre and spread    3  (  2.852376,  0.000001, -0.000001 )     2.19962471
  Sum of centres and spreads (  2.852375, -2.852374,  2.852374 )     6.59866165
 
     85    -0.142E-06     0.0002898967        6.5986636055       0.27  <-- CONV
        O_D=      0.0000000 O_OD=      0.0320980 O_TOT=      6.5986636 <-- SPRD
 Delta: O_D= -0.3606452E-07 O_OD= -0.1058706E-06 O_TOT= -0.1419351E-06 <-- DLTA
 ------------------------------------------------------------------------------
 Cycle:     86
  WF centre and spread    1  ( -0.000000, -2.852375, -0.000001 )     2.19941233
  WF centre and spread    2  (  0.000000,  0.000000,  2.852375 )     2.19962465
  WF centre and spread    3  (  2.852375,  0.000000, -0.000000 )     2.19962455
  Sum of centres and spreads (  2.852375, -2.852374,  2.852374 )     6.59866153
 
     86    -0.121E-06     0.0001851901        6.5986634841       0.27  <-- CONV
        O_D=      0.0000000 O_OD=      0.0320979 O_TOT=      6.5986635 <-- SPRD
 Delta: O_D= -0.3986707E-08 O_OD= -0.1174248E-06 O_TOT= -0.1214115E-06 <-- DLTA
 ------------------------------------------------------------------------------
 Cycle:     87
  WF centre and spread    1  (  0.000000, -2.852374, -0.000000 )     2.19941262
  WF centre and spread    2  (  0.000000,  0.000000,  2.852374 )     2.19962444
  WF centre and spread    3  (  2.852374,  0.000000, -0.000000 )     2.19962434
  Sum of centres and spreads (  2.852375, -2.852374,  2.852374 )     6.59866139
 
     87    -0.136E-06     0.0001754572        6.5986633476       0.27  <-- CONV
        O_D=      0.0000000 O_OD=      0.0320977 O_TOT=      6.5986633 <-- SPRD
 Delta: O_D=  0.1242562E-07 O_OD= -0.1488782E-06 O_TOT= -0.1364526E-06 <-- DLTA
 ------------------------------------------------------------------------------
 Cycle:     88
  WF centre and spread    1  (  0.000001, -2.852374,  0.000001 )     2.19941293
  WF centre and spread    2  (  0.000001, -0.000000,  2.852373 )     2.19962419
  WF centre and spread    3  (  2.852373, -0.000000,  0.000000 )     2.19962409
  Sum of centres and spreads (  2.852375, -2.852374,  2.852374 )     6.59866121
 
     88    -0.181E-06     0.0002068390        6.5986631670       0.28  <-- CONV
        O_D=      0.0000000 O_OD=      0.0320976 O_TOT=      6.5986632 <-- SPRD
 Delta: O_D=  0.4008583E-08 O_OD= -0.1846366E-06 O_TOT= -0.1806280E-06 <-- DLTA
 ------------------------------------------------------------------------------
 Cycle:     89
  WF centre and spread    1  (  0.000002, -2.852373,  0.000001 )     2.19941310
  WF centre and spread    2  (  0.000001, -0.000001,  2.852372 )     2.19962402
  WF centre and spread    3  (  2.852372, -0.000001,  0.000001 )     2.19962392
  Sum of centres and spreads (  2.852375, -2.852374,  2.852374 )     6.59866104
 
     89    -0.175E-06     0.0002308766        6.5986629917       0.28  <-- CONV
        O_D=      0.0000000 O_OD=      0.0320974 O_TOT=      6.5986630 <-- SPRD
 Delta: O_D= -0.3131258E-09 O_OD= -0.1750199E-06 O_TOT= -0.1753330E-06 <-- DLTA
 ------------------------------------------------------------------------------
 Cycle:     90
  WF centre and spread    1  (  0.000002, -2.852373,  0.000001 )     2.19941308
  WF centre and spread    2  (  0.000001, -0.000001,  2.852372 )     2.19962394
  WF centre and spread    3  (  2.852372, -0.000001,  0.000001 )     2.19962384
  Sum of centres and spreads (  2.852375, -2.852374,  2.852374 )     6.59866087
 
     90    -0.172E-06     0.0002253514        6.5986628200       0.28  <-- CONV
        O_D=      0.0000001 O_OD=      0.0320972 O_TOT=      6.5986628 <-- SPRD
 Delta: O_D=  0.2833411E-07 O_OD= -0.2000338E-06 O_TOT= -0.1716996E-06 <-- DLTA
 ------------------------------------------------------------------------------
 Cycle:     91
  WF centre and spread    1  (  0.000002, -2.852373,  0.000001 )     2.19941293
  WF centre and spread    2  (  0.000001, -0.000001,  2.852372 )     2.19962393
  WF centre and spread    3  (  2.852372, -0.000001,  0.000001 )     2.19962384
  Sum of centres and spreads (  2.852375, -2.852374,  2.852374 )     6.59866070
 
     91    -0.172E-06     0.0003000017        6.5986626478       0.28  <-- CONV
        O_D=      0.0000000 O_OD=      0.0320970 O_TOT=      6.5986626 <-- SPRD
 Delta: O_D= -0.2659872E-07 O_OD= -0.1455656E-06 O_TOT= -0.1721643E-06 <-- DLTA
 ------------------------------------------------------------------------------
 Cycle:     92
  WF centre and spread    1  (  0.000001, -2.852374,  0.000001 )     2.19941259
  WF centre and spread    2  (  0.000001, -0.000000,  2.852373 )     2.19962401
  WF centre and spread    3  (  2.852373, -0.000000,  0.000000 )     2.19962391
  Sum of centres and spreads (  2.852375, -2.852374,  2.852374 )     6.59866051
 
     92    -0.182E-06     0.0002267194        6.5986624659       0.28  <-- CONV
        O_D=      0.0000000 O_OD=      0.0320969 O_TOT=      6.5986625 <-- SPRD
 Delta: O_D= -0.1287918E-09 O_OD= -0.1817552E-06 O_TOT= -0.1818839E-06 <-- DLTA
 ------------------------------------------------------------------------------
 Cycle:     93
  WF centre and spread    1  (  0.000000, -2.852374, -0.000000 )     2.19941212
  WF centre and spread    2  (  0.000000,  0.000000,  2.852374 )     2.19962415
  WF centre and spread    3  (  2.852374,  0.000000, -0.000000 )     2.19962405
  Sum of centres and spreads (  2.852375, -2.852374,  2.852374 )     6.59866033
 
     93    -0.187E-06     0.0002323666        6.5986622786       0.29  <-- CONV
        O_D=      0.0000000 O_OD=      0.0320967 O_TOT=      6.5986623 <-- SPRD
 Delta: O_D= -0.7142360E-08 O_OD= -0.1801277E-06 O_TOT= -0.1872701E-06 <-- DLTA
 ------------------------------------------------------------------------------
 Cycle:     94
  WF centre and spread    1  ( -0.000000, -2.852375, -0.000000 )     2.19941175
  WF centre and spread    2  (  0.000000,  0.000000,  2.852375 )     2.19962427
  WF centre and spread    3  (  2.852375,  0.000000, -0.000000 )     2.19962418
  Sum of centres and spreads (  2.852375, -2.852374,  2.852374 )     6.59866019
 
     94    -0.132E-06     0.0002009840        6.5986621462       0.29  <-- CONV
        O_D=      0.0000000 O_OD=      0.0320966 O_TOT=      6.5986621 <-- SPRD
 Delta: O_D= -0.1237894E-07 O_OD= -0.1200566E-06 O_TOT= -0.1324355E-06 <-- DLTA
 ------------------------------------------------------------------------------
 Cycle:     95
  WF centre and spread    1  ( -0.000000, -2.852375, -0.000001 )     2.19941145
  WF centre and spread    2  (  0.000000,  0.000001,  2.852375 )     2.19962436
  WF centre and spread    3  (  2.852375,  0.000001, -0.000000 )     2.19962426
  Sum of centres and spreads (  2.852375, -2.852374,  2.852374 )     6.59866007
 
     95    -0.119E-06     0.0001678074        6.5986620269       0.29  <-- CONV
        O_D=      0.0000000 O_OD=      0.0320964 O_TOT=      6.5986620 <-- SPRD
 Delta: O_D=  0.4051823E-08 O_OD= -0.1234079E-06 O_TOT= -0.1193561E-06 <-- DLTA
 ------------------------------------------------------------------------------
 Cycle:     96
  WF centre and spread    1  ( -0.000000, -2.852375, -0.000001 )     2.19941125
  WF centre and spread    2  ( -0.000000,  0.000001,  2.852376 )     2.19962439
  WF centre and spread    3  (  2.852376,  0.000001, -0.000001 )     2.19962429
  Sum of centres and spreads (  2.852375, -2.852374,  2.852374 )     6.59865993
 
     96    -0.143E-06     0.0001796585        6.5986618842       0.29  <-- CONV
        O_D=      0.0000001 O_OD=      0.0320962 O_TOT=      6.5986619 <-- SPRD
 Delta: O_D=  0.3979202E-07 O_OD= -0.1824002E-06 O_TOT= -0.1426082E-06 <-- DLTA
 ------------------------------------------------------------------------------
 Cycle:     97
  WF centre and spread    1  ( -0.000000, -2.852375, -0.000001 )     2.19941130
  WF centre and spread    2  (  0.000000,  0.000001,  2.852375 )     2.19962429
  WF centre and spread    3  (  2.852375,  0.000001, -0.000000 )     2.19962419
  Sum of centres and spreads (  2.852375, -2.852374,  2.852374 )     6.59865979
 
[...]
  Sum of centres and spreads (  2.774953, -2.831518,  2.830320 )-48406.69414290
 
    473    -0.102E+05  ***************    35516.1384777637       1.44  <-- CONV
        O_D=     11.0112147 O_OD=  35498.5606975 O_TOT=  35516.1384778 <-- SPRD
 Delta: O_D= -0.2196490E+00 O_OD= -0.1021884E+05 O_TOT= -0.1021906E+05 <-- DLTA
 ------------------------------------------------------------------------------
 Cycle:    474
  WF centre and spread    1  (  0.012321, -2.806073,  0.001805 )-41743.47372348
  WF centre and spread    2  (  0.011497, -0.020151,  2.806852 )  -140.34521101
  WF centre and spread    3  (  2.788282, -0.002977,  0.006736 )-12681.01918148
  Sum of centres and spreads (  2.812099, -2.829201,  2.815394 )-54564.83811597
 
    474    -0.616E+04  ***************    29357.9945046924       1.44  <-- CONV
        O_D=     11.1319648 O_OD=  29340.2959743 O_TOT=  29357.9945047 <-- SPRD
 Delta: O_D=  0.1207501E+00 O_OD= -0.6158265E+04 O_TOT= -0.6158144E+04 <-- DLTA
 ------------------------------------------------------------------------------
 Cycle:    475
  WF centre and spread    1  (  0.005145, -2.812773,  0.002283 )-21878.25658589
  WF centre and spread    2  (  0.003639, -0.009934,  2.805310 ) -2238.02732996
  WF centre and spread    3  (  2.723110, -0.000288, -0.018145 ) -9958.53111097
  Sum of centres and spreads (  2.731894, -2.822995,  2.789447 )-34074.81502683
 
    475     0.205E+05  ***************    49848.0175938097       1.44  <-- CONV
        O_D=     10.2710164 O_OD=  49831.1800119 O_TOT=  49848.0175938 <-- SPRD
 Delta: O_D= -0.8609485E+00 O_OD=  0.2049088E+05 O_TOT=  0.2049002E+05 <-- DLTA
 ------------------------------------------------------------------------------
 Cycle:    476
  WF centre and spread    1  (  0.011726, -2.782298,  0.004343 )-19242.47710062
  WF centre and spread    2  (  0.002471, -0.001950,  2.792827 ) -1708.68278299
  WF centre and spread    3  (  2.741373,  0.001011, -0.000501 ) -4922.98574268
  Sum of centres and spreads (  2.755570, -2.783237,  2.796669 )-25874.14562629
 
    476     0.820E+04  ***************    58048.6869943302       1.45  <-- CONV
        O_D=      9.3160659 O_OD=  58032.8043628 O_TOT=  58048.6869943 <-- SPRD
 Delta: O_D= -0.9549504E+00 O_OD=  0.8201624E+04 O_TOT=  0.8200669E+04 <-- DLTA
 ------------------------------------------------------------------------------
 Cycle:    477
  WF centre and spread    1  ( -0.010648, -2.754002, -0.012486 )-31715.88166029
  WF centre and spread    2  (  0.018421, -0.028356,  2.799909 ) -3053.09020321
  WF centre and spread    3  (  2.763055,  0.011849, -0.006395 )-13552.50745314
  Sum of centres and spreads (  2.770828, -2.770510,  2.781028 )-48321.47931664
 
    477    -0.224E+05  ***************    35601.3533039850       1.45  <-- CONV
        O_D=     11.5077203 O_OD=  35583.2790181 O_TOT=  35601.3533040 <-- SPRD
 Delta: O_D=  0.2191654E+01 O_OD= -0.2244953E+05 O_TOT= -0.2244733E+05 <-- DLTA
 ------------------------------------------------------------------------------
 Cycle:    478
  WF centre and spread    1  (  0.008851, -2.771252,  0.013339 )-26112.03884755
  WF centre and spread    2  (  0.027749, -0.020877,  2.722068 ) -1221.12908704
  WF centre and spread    3  (  2.813526,  0.002432,  0.003913 )-15765.37685173
  Sum of centres and spreads (  2.850127, -2.789697,  2.739320 )-43098.54478632
 
    478     0.522E+04  ***************    40824.2878342991       1.45  <-- CONV
        O_D=     12.2972344 O_OD=  40805.4240343 O_TOT=  40824.2878343 <-- SPRD
 Delta: O_D=  0.7895141E+00 O_OD=  0.5222145E+04 O_TOT=  0.5222935E+04 <-- DLTA
 ------------------------------------------------------------------------------
 Cycle:    479
  WF centre and spread    1  (  0.007076, -2.747306, -0.003919 )-27964.64951902
  WF centre and spread    2  (  0.005677,  0.002014,  2.765591 ) -1493.71251413
  WF centre and spread    3  (  2.777667, -0.001475,  0.005506 )-13538.52330539
  Sum of centres and spreads (  2.790419, -2.746768,  2.767178 )-42996.88533854
 
    479     0.102E+03  ***************    40925.9472820744       1.45  <-- CONV
        O_D=     12.4649080 O_OD=  40906.9158085 O_TOT=  40925.9472821 <-- SPRD
 Delta: O_D=  0.1676736E+00 O_OD=  0.1014918E+03 O_TOT=  0.1016594E+03 <-- DLTA
 ------------------------------------------------------------------------------
 Cycle:    480
  WF centre and spread    1  (  0.012675, -2.823243, -0.000783 )-28719.27158609
  WF centre and spread    2  (  0.007673, -0.011684,  2.794435 )  -941.84633220
  WF centre and spread    3  (  2.815459, -0.001180,  0.004987 ) -5920.76988491
  Sum of centres and spreads (  2.835807, -2.836107,  2.798639 )-35581.88780321
 
    480     0.741E+04  ***************    48340.9448174687       1.45  <-- CONV
        O_D=      8.3379202 O_OD=  48326.0403317 O_TOT=  48340.9448175 <-- SPRD
 Delta: O_D= -0.4126988E+01 O_OD=  0.7419125E+04 O_TOT=  0.7414998E+04 <-- DLTA
 ------------------------------------------------------------------------------
 Cycle:    481
  WF centre and spread    1  (  0.012083, -2.776577,  0.009498 )-29880.96382676
  WF centre and spread    2  (  0.033174, -0.010198,  2.790927 ) -2758.75302256
  WF centre and spread    3  (  2.773843,  0.010513,  0.003205 ) -9009.81595302
  Sum of centres and spreads (  2.819100, -2.776262,  2.803629 )-41649.53280233
 
    481    -0.607E+04  ***************    42273.2998183062       1.46  <-- CONV
        O_D=     12.6662257 O_OD=  42254.0670271 O_TOT=  42273.2998183 <-- SPRD
 Delta: O_D=  0.4328305E+01 O_OD= -0.6071973E+04 O_TOT= -0.6067645E+04 <-- DLTA
 ------------------------------------------------------------------------------
 Cycle:    482
  WF centre and spread    1  (  0.000612, -2.791995, -0.016496 )-27014.01482645
  WF centre and spread    2  ( -0.011409, -0.025773,  2.796210 ) -1440.16124691
  WF centre and spread    3  (  2.803048, -0.012289, -0.003176 )-16770.03097833
  Sum of centres and spreads (  2.792251, -2.830057,  2.776538 )-45224.20705169
 
    482    -0.357E+04  ***************    38698.6255689707       1.46  <-- CONV
        O_D=     10.5967076 O_OD=  38681.4622957 O_TOT=  38698.6255690 <-- SPRD
 Delta: O_D= -0.2069518E+01 O_OD= -0.3572605E+04 O_TOT= -0.3574674E+04 <-- DLTA
 ------------------------------------------------------------------------------
 Cycle:    483
  WF centre and spread    1  ( -0.001645, -2.767435, -0.002376 )-26687.28923273
  WF centre and spread    2  (  0.019353, -0.018970,  2.791550 ) -2839.82927265
  WF centre and spread    3  (  2.810655, -0.014151,  0.007444 )-13336.15517236
  Sum of centres and spreads (  2.828363, -2.800556,  2.796619 )-42863.27367774
 
    483     0.236E+04  ***************    41059.5589429109       1.46  <-- CONV
        O_D=     13.6455192 O_OD=  41039.3468581 O_TOT=  41059.5589429 <-- SPRD
 Delta: O_D=  0.3048812E+01 O_OD=  0.2357885E+04 O_TOT=  0.2360933E+04 <-- DLTA
 ------------------------------------------------------------------------------
 Cycle:    484
  WF centre and spread    1  ( -0.004287, -2.799030, -0.002576 )-22244.67703606
  WF centre and spread    2  (  0.026692, -0.006075,  2.764743 ) -3294.50740386
  WF centre and spread    3  (  2.813362, -0.015691,  0.005611 )-22224.56756074
  Sum of centres and spreads (  2.835767, -2.820796,  2.767778 )-47763.75200066
 
    484    -0.490E+04  ***************    36159.0806199937       1.46  <-- CONV
        O_D=     10.8752403 O_OD=  36141.6388141 O_TOT=  36159.0806200 <-- SPRD
 Delta: O_D= -0.2770279E+01 O_OD= -0.4897708E+04 O_TOT= -0.4900478E+04 <-- DLTA
 ------------------------------------------------------------------------------
 Cycle:    485
  WF centre and spread    1  ( -0.008861, -2.831904, -0.004923 ) -4330.67784179
  WF centre and spread    2  (  0.014330, -0.005075,  2.799144 ) -1572.07728555
  WF centre and spread    3  (  2.824302, -0.015026,  0.011777 )-11329.02010164
  Sum of centres and spreads (  2.829771, -2.852005,  2.805998 )-17231.77522898
 
    485     0.305E+05  ***************    66691.0573917032       1.46  <-- CONV
        O_D=      8.4182956 O_OD=  66676.0725305 O_TOT=  66691.0573917 <-- SPRD
 Delta: O_D= -0.2456945E+01 O_OD=  0.3053443E+05 O_TOT=  0.3053198E+05 <-- DLTA
 ------------------------------------------------------------------------------
 Cycle:    486
  WF centre and spread    1  ( -0.022264, -2.839577, -0.004904 )-48731.34541175
  WF centre and spread    2  ( -0.016414,  0.008257,  2.739693 ) -1475.01192995
  WF centre and spread    3  (  2.789572,  0.008072, -0.004748 )-17218.38974008
  Sum of centres and spreads (  2.750894, -2.823247,  2.730041 )-67424.74708178
 
    486    -0.502E+05  ***************    16498.0855388661       1.47  <-- CONV
        O_D=     10.2008112 O_OD=  16481.3181621 O_TOT=  16498.0855389 <-- SPRD
 Delta: O_D=  0.1782516E+01 O_OD= -0.5019475E+05 O_TOT= -0.5019297E+05 <-- DLTA
 ------------------------------------------------------------------------------
 Cycle:    487
  WF centre and spread    1  (  0.006178, -2.768354,  0.010520 )-24537.20581725
  WF centre and spread    2  (  0.010586, -0.004804,  2.724125 ) -1229.25065620
  WF centre and spread    3  (  2.814503, -0.006016,  0.011262 )-21907.57757189
  Sum of centres and spreads (  2.831267, -2.779175,  2.745907 )-47674.03404533
 
    487     0.198E+05  ***************    36248.7985752907       1.47  <-- CONV
        O_D=     13.2410978 O_OD=  36228.9909119 O_TOT=  36248.7985753 <-- SPRD
 Delta: O_D=  0.3040287E+01 O_OD=  0.1974767E+05 O_TOT=  0.1975071E+05 <-- DLTA
 ------------------------------------------------------------------------------
 Cycle:    488
  WF centre and spread    1  (  0.003777, -2.765906,  0.006603 )-26970.12223459
  WF centre and spread    2  (  0.001490, -0.012584,  2.715303 ) -2593.38342803
  WF centre and spread    3  (  2.747623,  0.009992, -0.007404 ) -4275.50971017
  Sum of centres and spreads (  2.752891, -2.768497,  2.714502 )-33839.01537279
 
    488     0.138E+05  ***************    50083.8172478001       1.47  <-- CONV
        O_D=     13.7858512 O_OD=  50063.4648310 O_TOT=  50083.8172478 <-- SPRD
 Delta: O_D=  0.5447534E+00 O_OD=  0.1383447E+05 O_TOT=  0.1383502E+05 <-- DLTA
 ------------------------------------------------------------------------------
 Cycle:    489
  WF centre and spread    1  (  0.002871, -2.756926, -0.022817 )-26163.61222996
  WF centre and spread    2  (  0.000049, -0.009354,  2.742704 ) -2262.84629230
  WF centre and spread    3  (  2.755878,  0.024193,  0.004008 )-15674.60190771
  Sum of centres and spreads (  2.758799, -2.742088,  2.723894 )-44101.06042997
 
    489    -0.103E+05  ***************    39821.7721906289       1.47  <-- CONV
        O_D=     13.0819973 O_OD=  39802.1236278 O_TOT=  39821.7721906 <-- SPRD
 Delta: O_D= -0.7038540E+00 O_OD= -0.1026134E+05 O_TOT= -0.1026205E+05 <-- DLTA
 ------------------------------------------------------------------------------
 Cycle:    490
  WF centre and spread    1  (  0.021228, -2.780980, -0.018441 )-37530.35787375
  WF centre and spread    2  (  0.026812,  0.000138,  2.772833 ) -2011.12543870
  WF centre and spread    3  (  2.813706,  0.004479,  0.003066 )-14692.67608804
  Sum of centres and spreads (  2.861747, -2.776363,  2.757458 )-54234.15940049
 
    490    -0.101E+05  ***************    29688.6732201550       1.47  <-- CONV
        O_D=     10.2245109 O_OD=  29671.8821437 O_TOT=  29688.6732202 <-- SPRD
 Delta: O_D= -0.2857486E+01 O_OD= -0.1013024E+05 O_TOT= -0.1013310E+05 <-- DLTA
 ------------------------------------------------------------------------------
 Cycle:    491
  WF centre and spread    1  (  0.029750, -2.803989,  0.010663 )-47864.68786936
  WF centre and spread    2  (  0.001072, -0.030140,  2.739889 ) -1023.25138993
  WF centre and spread    3  (  2.766666, -0.000949, -0.006029 ) -6333.52469504
  Sum of centres and spreads (  2.797489, -2.835078,  2.744524 )-55221.46395433
 
    491    -0.987E+03  ***************    28701.3686662952       1.48  <-- CONV
        O_D=     13.5581767 O_OD=  28681.2439240 O_TOT=  28701.3686663 <-- SPRD
 Delta: O_D=  0.3333666E+01 O_OD= -0.9906382E+03 O_TOT= -0.9873046E+03 <-- DLTA
 ------------------------------------------------------------------------------
 Cycle:    492
  WF centre and spread    1  ( -0.008755, -2.801034,  0.007277 )-29853.24200836
  WF centre and spread    2  ( -0.010034,  0.007648,  2.780312 ) -2459.72686435
  WF centre and spread    3  (  2.805711,  0.015825,  0.013873 )-14457.48057975
  Sum of centres and spreads (  2.786922, -2.777561,  2.801462 )-46770.44945246
 
    492     0.845E+04  ***************    37152.3831682009       1.48  <-- CONV
        O_D=      9.3844728 O_OD=  37136.4321298 O_TOT=  37152.3831682 <-- SPRD
 Delta: O_D= -0.4173704E+01 O_OD=  0.8455188E+04 O_TOT=  0.8451015E+04 <-- DLTA
 ------------------------------------------------------------------------------
 Cycle:    493
  WF centre and spread    1  (  0.000583, -2.774990, -0.000579 )-24057.60260092
  WF centre and spread    2  (  0.014589, -0.032742,  2.748892 ) -1735.38064160
  WF centre and spread    3  (  2.785579,  0.000156,  0.004229 ) -9029.29629582
  Sum of centres and spreads (  2.800751, -2.807577,  2.752542 )-34822.27953833
 
    493     0.119E+05  ***************    49100.5530822892       1.48  <-- CONV
        O_D=     12.7405960 O_OD=  49081.2459207 O_TOT=  49100.5530823 <-- SPRD
 Delta: O_D=  0.3356123E+01 O_OD=  0.1194481E+05 O_TOT=  0.1194817E+05 <-- DLTA
 ------------------------------------------------------------------------------
 Cycle:    494
  WF centre and spread    1  ( -0.017913, -2.809744, -0.002863 )-24269.06445077
  WF centre and spread    2  (  0.019830, -0.013569,  2.774779 ) -2087.17242181
  WF centre and spread    3  (  2.823230, -0.008926,  0.013570 )-19804.11700972
  Sum of centres and spreads (  2.825147, -2.832239,  2.785485 )-46160.35388230
 
    494    -0.113E+05  ***************    37762.4787383698       1.48  <-- CONV
        O_D=      8.1454741 O_OD=  37747.7666987 O_TOT=  37762.4787384 <-- SPRD
 Delta: O_D= -0.4595122E+01 O_OD= -0.1133348E+05 O_TOT= -0.1133807E+05 <-- DLTA
 ------------------------------------------------------------------------------
 Cycle:    495
  WF centre and spread    1  ( -0.000890, -2.806136,  0.007430 )-37382.06793272
  WF centre and spread    2  ( -0.005855,  0.002496,  2.838184 ) -2911.71167222
  WF centre and spread    3  (  2.839098,  0.018863, -0.023959 ) -5034.41343710
  Sum of centres and spreads (  2.832353, -2.784777,  2.821655 )-45328.19304203
 
    495     0.832E+03  ***************    38594.6395786647       1.48  <-- CONV
        O_D=      7.3345090 O_OD=  38580.7385041 O_TOT=  38594.6395787 <-- SPRD
 Delta: O_D= -0.8109651E+00 O_OD=  0.8329718E+03 O_TOT=  0.8321608E+03 <-- DLTA
 ------------------------------------------------------------------------------
 Cycle:    496
  WF centre and spread    1  (  0.000082, -2.807859, -0.003534 )-21620.36509175
  WF centre and spread    2  ( -0.000552,  0.012647,  2.813060 ) -2120.14747901
  WF centre and spread    3  (  2.816210,  0.015114, -0.006028 ) -8136.57660403
  Sum of centres and spreads (  2.815741, -2.780098,  2.803497 )-31877.08917479
 
    496     0.135E+05  ***************    52045.7434458878       1.49  <-- CONV
        O_D=      7.5189808 O_OD=  52031.6578996 O_TOT=  52045.7434459 <-- SPRD
 Delta: O_D=  0.1844718E+00 O_OD=  0.1345092E+05 O_TOT=  0.1345110E+05 <-- DLTA
 ------------------------------------------------------------------------------
 Cycle:    497
  WF centre and spread    1  ( -0.004637, -2.786132,  0.006903 )-13968.96756497
  WF centre and spread    2  (  0.003089, -0.005433,  2.802830 ) -2416.84916467
  WF centre and spread    3  (  2.818137,  0.002605, -0.004889 )-10382.32974878
  Sum of centres and spreads (  2.816590, -2.788961,  2.804844 )-26768.14647842
 
    497     0.511E+04  ***************    57154.6861422438       1.49  <-- CONV
        O_D=      7.7107672 O_OD=  57140.4088095 O_TOT=  57154.6861422 <-- SPRD
 Delta: O_D=  0.1917864E+00 O_OD=  0.5108751E+04 O_TOT=  0.5108943E+04 <-- DLTA
 ------------------------------------------------------------------------------
 Cycle:    498
  WF centre and spread    1  ( -0.000612, -2.792460,  0.004576 ) -6659.42957572
  WF centre and spread    2  (  0.025534, -0.005330,  2.788037 ) -1183.84913493
  WF centre and spread    3  (  2.857361, -0.010487,  0.003377 )-15543.49921631
  Sum of centres and spreads (  2.882283, -2.808278,  2.795990 )-23386.77792696
 
    498     0.338E+04  ***************    60536.0546937172       1.49  <-- CONV
        O_D=      7.9530268 O_OD=  60521.5351014 O_TOT=  60536.0546937 <-- SPRD
 Delta: O_D=  0.2422596E+00 O_OD=  0.3381126E+04 O_TOT=  0.3381369E+04 <-- DLTA
 ------------------------------------------------------------------------------
 Cycle:    499
  WF centre and spread    1  ( -0.001736, -2.800624,  0.004448 )-24986.93304639
  WF centre and spread    2  ( -0.003198, -0.018891,  2.787541 ) -1845.13271786
  WF centre and spread    3  (  2.845345,  0.015888,  0.001430 ) -4711.23482899
  Sum of centres and spreads (  2.840411, -2.803627,  2.793419 )-31543.30059324
 
    499    -0.816E+04  ***************    52379.5320274381       1.49  <-- CONV
        O_D=      7.9034420 O_OD=  52365.0620198 O_TOT=  52379.5320274 <-- SPRD
 Delta: O_D= -0.4958471E-01 O_OD= -0.8156473E+04 O_TOT= -0.8156523E+04 <-- DLTA
 ------------------------------------------------------------------------------
 Cycle:    500
  WF centre and spread    1  ( -0.002868, -2.802596, -0.004537 ) -9360.58021936
  WF centre and spread    2  (  0.021332,  0.001120,  2.747427 ) -2268.15717307
  WF centre and spread    3  (  2.810348,  0.025433, -0.002215 )-11584.00148998
  Sum of centres and spreads (  2.828812, -2.776043,  2.740676 )-23212.73888241
 
    500     0.833E+04  ***************    60710.0937382342       1.49  <-- CONV
        O_D=     10.8318445 O_OD=  60692.6953282 O_TOT=  60710.0937382 <-- SPRD
 Delta: O_D=  0.2928402E+01 O_OD=  0.8327633E+04 O_TOT=  0.8330562E+04 <-- DLTA
 ------------------------------------------------------------------------------

 Writing checkpoint file mp-1672.chk... done

 Final State
  WF centre and spread    1  ( -0.002868, -2.802596, -0.004537 ) -9360.58021936
  WF centre and spread    2  (  0.021332,  0.001120,  2.747427 ) -2268.15717307
  WF centre and spread    3  (  2.810348,  0.025433, -0.002215 )-11584.00148998
  Sum of centres and spreads (  2.828812, -2.776043,  2.740676 )-23212.73888241
 
         Spreads (Ang^2)       Omega I      =     6.566565576
        ================       Omega D      =    10.831844507
                               Omega OD     = 60692.695328151
    Final Spread (Ang^2)       Omega Total  = 60710.093738234
 ------------------------------------------------------------------------------
 Time for wannierise            1.228 (sec)

 Writing checkpoint file mp-1672.chk... done

 Time for plotting              0.000 (sec)
 Total Execution Time           2.118 (sec)

 *===========================================================================*
 |                             TIMING INFORMATION                            |
 *===========================================================================*
 |    Tag                                                Ncalls      Time (s)|
 |---------------------------------------------------------------------------|
 |kmesh: get                                        :         1         0.637|
 |overlap: allocate                                 :         1         0.001|
 |overlap: read                                     :         1         0.085|
 |wann: main                                        :         1         1.228|
 |plot: main                                        :         1         0.000|
 *---------------------------------------------------------------------------*
 
 All done: wannier90 exiting
