
     Program PWSCF v.7.1 starts on  8Apr2024 at 15:10:30 

     This program is part of the open-source Quantum ESPRESSO suite
     for quantum simulation of materials; please cite
         "P. Giannozzi et al., J. Phys.:Condens. Matter 21 395502 (2009);
         "P. Giannozzi et al., J. Phys.:Condens. Matter 29 465901 (2017);
         "P. Giannozzi et al., J. Chem. Phys. 152 154105 (2020);
          URL http://www.quantum-espresso.org", 
     in publications or presentations arising from this work. More details at
     http://www.quantum-espresso.org/quote

     Parallel version (MPI), running on    16 processors

     MPI processes distributed on     1 nodes
     246560 MiB available memory on the printing compute node when the environment starts
 
     Reading input from pw_mp-682_scf_k3000_E65.in
Warning: card &CELL ignored
Warning: card / ignored

     Current dimensions of program PWSCF are:
     Max number of different atomic species (ntypx) = 10
     Max number of k-points (npk) =  40000
     Max angular momentum in pseudopotentials (lmaxx) =  4
 
     R & G space division:  proc/nbgrp/npool/nimage =      16
     Subspace diagonalization in iterative solution of the eigenvalue problem:
     a serial algorithm will be used

 
     Parallelization info
     --------------------
     sticks:   dense  smooth     PW     G-vecs:    dense   smooth      PW
     Min          42      42     13                  719      719     123
     Max          43      43     14                  722      722     126
     Sum         673     673    211                11527    11527    1989
 
     Using Slab Decomposition
 


     bravais-lattice index     =            2
     lattice parameter (alat)  =       8.6394  a.u.
     unit-cell volume          =     161.2111 (a.u.)^3
     number of atoms/cell      =            2
     number of atomic types    =            2
     number of electrons       =        16.00
     number of Kohn-Sham states=           16
     kinetic-energy cutoff     =      65.0000  Ry
     charge density cutoff     =     260.0000  Ry
     scf convergence threshold =      1.0E-10
     mixing beta               =       0.7000
     number of iterations used =            8  plain     mixing
     Exchange-correlation= PBE
                           (   1   4   3   4   0   0   0)

     celldm(1)=   8.639428  celldm(2)=   0.000000  celldm(3)=   0.000000
     celldm(4)=   0.000000  celldm(5)=   0.000000  celldm(6)=   0.000000

     crystal axes: (cart. coord. in units of alat)
               a(1) = (  -0.500000   0.000000   0.500000 )  
               a(2) = (   0.000000   0.500000   0.500000 )  
               a(3) = (  -0.500000   0.500000   0.000000 )  

     reciprocal axes: (cart. coord. in units 2 pi/alat)
               b(1) = ( -1.000000 -1.000000  1.000000 )  
               b(2) = (  1.000000  1.000000  1.000000 )  
               b(3) = ( -1.000000  1.000000 -1.000000 )  


     PseudoPot. # 1 for F  read from file:
     /usr/scratch4/magr4826/Promotion/Python/Code/devEb/pseudo/SG15/F.upf
     MD5 check sum: 1d8275f47d602dd53cad6bcdc0eda7dc
     Pseudo is Norm-conserving, Zval =  7.0
     Generated using ONCVPSP code by D. R. Hamann
     Using radial grid of  602 points,  4 beta functions with: 
                l(1) =   0
                l(2) =   0
                l(3) =   1
                l(4) =   1

     PseudoPot. # 2 for Na read from file:
     /usr/scratch4/magr4826/Promotion/Python/Code/devEb/pseudo/SG15/Na.upf
     MD5 check sum: 425b17ce8ead78efa4860b7b3310c7e3
     Pseudo is Norm-conserving, Zval =  9.0
     Generated using ONCVPSP code by D. R. Hamann
     Using radial grid of  602 points,  4 beta functions with: 
                l(1) =   0
                l(2) =   0
                l(3) =   1
                l(4) =   1

     atomic species   valence    mass     pseudopotential
        F              7.00    18.99840     F ( 1.00)
        Na             9.00    22.98980     Na( 1.00)

     48 Sym. Ops., with inversion, found



   Cartesian axes

     site n.     atom                  positions (alat units)
         1           Na  tau(   1) = (   0.0000000   0.0000000   0.0000000  )
         2           F   tau(   2) = (  -0.5000000   0.5000000   0.5000000  )

     number of k points=    72  Gaussian smearing, width (Ry)=  0.0005
                       cart. coord. in units 2pi/alat
        k(    1) = (   0.0000000   0.0000000   0.0000000), wk =   0.0011574
        k(    2) = (  -0.0833333   0.0833333  -0.0833333), wk =   0.0092593
        k(    3) = (  -0.1666667   0.1666667  -0.1666667), wk =   0.0092593
        k(    4) = (  -0.2500000   0.2500000  -0.2500000), wk =   0.0092593
        k(    5) = (  -0.3333333   0.3333333  -0.3333333), wk =   0.0092593
        k(    6) = (  -0.4166667   0.4166667  -0.4166667), wk =   0.0092593
        k(    7) = (   0.5000000  -0.5000000   0.5000000), wk =   0.0046296
        k(    8) = (   0.0000000   0.1666667   0.0000000), wk =   0.0069444
        k(    9) = (  -0.0833333   0.2500000  -0.0833333), wk =   0.0277778
        k(   10) = (  -0.1666667   0.3333333  -0.1666667), wk =   0.0277778
        k(   11) = (  -0.2500000   0.4166667  -0.2500000), wk =   0.0277778
        k(   12) = (  -0.3333333   0.5000000  -0.3333333), wk =   0.0277778
        k(   13) = (   0.5833333  -0.4166667   0.5833333), wk =   0.0277778
        k(   14) = (   0.5000000  -0.3333333   0.5000000), wk =   0.0277778
        k(   15) = (   0.4166667  -0.2500000   0.4166667), wk =   0.0277778
        k(   16) = (   0.3333333  -0.1666667   0.3333333), wk =   0.0277778
        k(   17) = (   0.2500000  -0.0833333   0.2500000), wk =   0.0277778
        k(   18) = (   0.1666667  -0.0000000   0.1666667), wk =   0.0138889
        k(   19) = (   0.0000000   0.3333333   0.0000000), wk =   0.0069444
        k(   20) = (  -0.0833333   0.4166667  -0.0833333), wk =   0.0277778
        k(   21) = (  -0.1666667   0.5000000  -0.1666667), wk =   0.0277778
        k(   22) = (  -0.2500000   0.5833333  -0.2500000), wk =   0.0277778
        k(   23) = (   0.6666667  -0.3333333   0.6666667), wk =   0.0277778
        k(   24) = (   0.5833333  -0.2500000   0.5833333), wk =   0.0277778
        k(   25) = (   0.5000000  -0.1666667   0.5000000), wk =   0.0277778
        k(   26) = (   0.4166667  -0.0833333   0.4166667), wk =   0.0277778
        k(   27) = (   0.3333333   0.0000000   0.3333333), wk =   0.0138889
        k(   28) = (   0.0000000   0.5000000   0.0000000), wk =   0.0069444
        k(   29) = (  -0.0833333   0.5833333  -0.0833333), wk =   0.0277778
        k(   30) = (  -0.1666667   0.6666667  -0.1666667), wk =   0.0277778
        k(   31) = (   0.7500000  -0.2500000   0.7500000), wk =   0.0277778
        k(   32) = (   0.6666667  -0.1666667   0.6666667), wk =   0.0277778
        k(   33) = (   0.5833333  -0.0833333   0.5833333), wk =   0.0277778
        k(   34) = (   0.5000000   0.0000000   0.5000000), wk =   0.0138889
        k(   35) = (   0.0000000   0.6666667   0.0000000), wk =   0.0069444
        k(   36) = (  -0.0833333   0.7500000  -0.0833333), wk =   0.0277778
        k(   37) = (   0.8333333  -0.1666667   0.8333333), wk =   0.0277778
        k(   38) = (   0.7500000  -0.0833333   0.7500000), wk =   0.0277778
        k(   39) = (   0.6666667  -0.0000000   0.6666667), wk =   0.0138889
        k(   40) = (   0.0000000   0.8333333   0.0000000), wk =   0.0069444
        k(   41) = (   0.9166667  -0.0833333   0.9166667), wk =   0.0277778
        k(   42) = (   0.8333333   0.0000000   0.8333333), wk =   0.0138889
        k(   43) = (   0.0000000  -1.0000000   0.0000000), wk =   0.0034722
        k(   44) = (  -0.1666667   0.3333333   0.0000000), wk =   0.0277778
        k(   45) = (  -0.2500000   0.4166667  -0.0833333), wk =   0.0555556
        k(   46) = (  -0.3333333   0.5000000  -0.1666667), wk =   0.0555556
        k(   47) = (   0.5833333  -0.4166667   0.7500000), wk =   0.0555556
        k(   48) = (   0.5000000  -0.3333333   0.6666667), wk =   0.0277778
        k(   49) = (  -0.1666667   0.5000000   0.0000000), wk =   0.0277778
        k(   50) = (  -0.2500000   0.5833333  -0.0833333), wk =   0.0555556
        k(   51) = (   0.6666667  -0.3333333   0.8333333), wk =   0.0555556
        k(   52) = (   0.5833333  -0.2500000   0.7500000), wk =   0.0555556
        k(   53) = (   0.5000000  -0.1666667   0.6666667), wk =   0.0555556
        k(   54) = (   0.4166667  -0.0833333   0.5833333), wk =   0.0555556
        k(   55) = (   0.3333333   0.0000000   0.5000000), wk =   0.0277778
        k(   56) = (  -0.1666667   0.6666667  -0.0000000), wk =   0.0277778
        k(   57) = (   0.7500000  -0.2500000   0.9166667), wk =   0.0555556
        k(   58) = (   0.6666667  -0.1666667   0.8333333), wk =   0.0555556
        k(   59) = (   0.5833333  -0.0833333   0.7500000), wk =   0.0555556
        k(   60) = (   0.5000000   0.0000000   0.6666667), wk =   0.0277778
        k(   61) = (   0.8333333  -0.1666667   1.0000000), wk =   0.0277778
        k(   62) = (   0.7500000  -0.0833333   0.9166667), wk =   0.0555556
        k(   63) = (   0.6666667   0.0000000   0.8333333), wk =   0.0277778
        k(   64) = (  -0.1666667  -1.0000000  -0.0000000), wk =   0.0138889
        k(   65) = (   0.6666667  -0.3333333   1.0000000), wk =   0.0277778
        k(   66) = (   0.5833333  -0.2500000   0.9166667), wk =   0.0555556
        k(   67) = (   0.5000000  -0.1666667   0.8333333), wk =   0.0277778
        k(   68) = (   0.6666667  -0.1666667   1.0000000), wk =   0.0277778
        k(   69) = (   0.5833333  -0.0833333   0.9166667), wk =   0.0555556
        k(   70) = (   0.5000000   0.0000000   0.8333333), wk =   0.0277778
        k(   71) = (  -0.3333333  -1.0000000   0.0000000), wk =   0.0138889
        k(   72) = (  -0.5000000  -1.0000000   0.0000000), wk =   0.0069444

     Dense  grid:    11527 G-vectors     FFT dimensions: (  32,  32,  32)

     Estimated max dynamical RAM per process >       2.95 MB

     Estimated total dynamical RAM >      47.16 MB

     Initial potential from superposition of free atoms

     starting charge      15.8629, renormalised to      16.0000
     Starting wfcs are random

     total cpu time spent up to now is        0.5 secs

     Self-consistent Calculation

     iteration #  1     ecut=    65.00 Ry     beta= 0.70
     Davidson diagonalization with overlap
     c_bands:  1 eigenvalues not converged
     ethr =  5.00E-06,  avg # of iterations = 15.0

     total cpu time spent up to now is        1.7 secs

     total energy              =    -133.13961848 Ry
     estimated scf accuracy    <       0.15197322 Ry

     iteration #  2     ecut=    65.00 Ry     beta= 0.70
     Davidson diagonalization with overlap
     ethr =  9.50E-04,  avg # of iterations =  2.2

     total cpu time spent up to now is        2.1 secs

     total energy              =    -133.17674876 Ry
     estimated scf accuracy    <       0.10702477 Ry

     iteration #  3     ecut=    65.00 Ry     beta= 0.70
     Davidson diagonalization with overlap
     ethr =  6.69E-04,  avg # of iterations =  1.8

     total cpu time spent up to now is        2.4 secs

     total energy              =    -133.19931801 Ry
     estimated scf accuracy    <       0.00122149 Ry

     iteration #  4     ecut=    65.00 Ry     beta= 0.70
     Davidson diagonalization with overlap
     ethr =  7.63E-06,  avg # of iterations =  3.3

     total cpu time spent up to now is        2.7 secs

     total energy              =    -133.19957414 Ry
     estimated scf accuracy    <       0.00000850 Ry

     iteration #  5     ecut=    65.00 Ry     beta= 0.70
     Davidson diagonalization with overlap
     ethr =  5.31E-08,  avg # of iterations =  4.3

     total cpu time spent up to now is        3.2 secs

     total energy              =    -133.19957743 Ry
     estimated scf accuracy    <       0.00000104 Ry

     iteration #  6     ecut=    65.00 Ry     beta= 0.70
     Davidson diagonalization with overlap
     ethr =  6.48E-09,  avg # of iterations =  4.5

     total cpu time spent up to now is        3.5 secs

     total energy              =    -133.19957766 Ry
     estimated scf accuracy    <       0.00000006 Ry

     iteration #  7     ecut=    65.00 Ry     beta= 0.70
     Davidson diagonalization with overlap
     ethr =  3.66E-10,  avg # of iterations =  2.9

     total cpu time spent up to now is        3.8 secs

     total energy              =    -133.19957767 Ry
     estimated scf accuracy    <          1.8E-10 Ry

     iteration #  8     ecut=    65.00 Ry     beta= 0.70
     Davidson diagonalization with overlap
     ethr =  1.14E-12,  avg # of iterations =  6.4

     total cpu time spent up to now is        4.3 secs

     End of self-consistent calculation

          k = 0.0000 0.0000 0.0000 (  1411 PWs)   bands (ev):

   -45.3589 -17.5374 -17.2650 -17.2650 -17.2650   1.6149   1.6149   1.6149
     8.1941  21.0534  21.0534  21.0534  23.8942  26.3228  26.3228  29.1760

          k =-0.0833 0.0833-0.0833 (  1435 PWs)   bands (ev):

   -45.3583 -17.6590 -17.2659 -17.2659 -17.1340   1.4692   1.5953   1.5953
     8.4511  20.0306  21.1677  21.1677  25.0540  26.0043  26.0043  29.1973

          k =-0.1667 0.1667-0.1667 (  1426 PWs)   bands (ev):

   -45.3552 -17.8385 -17.2684 -17.2684 -16.9284   1.1114   1.5454   1.5454
     9.1399  18.4990  21.4732  21.4732  25.4376  25.4376  26.4668  29.7643

          k =-0.2500 0.2500-0.2500 (  1411 PWs)   bands (ev):

   -45.3509 -17.9957 -17.2717 -17.2717 -16.7349   0.6841   1.4783   1.4783
    10.0945  17.1294  21.8509  21.8509  25.0301  25.0301  26.6808  30.9889

          k =-0.3333 0.3333-0.3333 (  1423 PWs)   bands (ev):

   -45.3472 -18.1149 -17.2750 -17.2750 -16.5790   0.3034   1.4115   1.4115
    11.1546  15.9638  22.1269  22.1269  24.9438  24.9438  26.4126  30.5459

          k =-0.4167 0.4167-0.4167 (  1422 PWs)   bands (ev):

   -45.3442 -18.1888 -17.2774 -17.2774 -16.4779   0.0482   1.3634   1.3634
    12.1587  14.9929  22.2294  22.2294  25.0925  25.0925  26.1883  29.7360

          k = 0.5000-0.5000 0.5000 (  1458 PWs)   bands (ev):

   -45.3438 -18.2138 -17.2783 -17.2783 -16.4429  -0.0426   1.3447   1.3447
    12.7028  14.4762  22.2445  22.2445  25.1912  25.1912  26.1144  29.4083

          k = 0.0000 0.1667 0.0000 (  1427 PWs)   bands (ev):

   -45.3578 -17.6788 -17.2690 -17.2690 -17.1062   1.4405   1.5826   1.5826
     8.5341  19.8859  21.1233  21.1233  25.3432  25.4599  26.5091  29.4963

          k =-0.0833 0.2500-0.0833 (  1422 PWs)   bands (ev):

   -45.3554 -17.8049 -17.2733 -17.2709 -16.9590   1.1748   1.5378   1.5410
     9.0729  18.7253  21.2803  21.3537  24.5160  26.4080  26.8768  29.6724

          k =-0.1667 0.3333-0.1667 (  1416 PWs)   bands (ev):

   -45.3516 -17.9453 -17.2777 -17.2730 -16.7881   0.7967   1.4736   1.4739
     9.9329  17.4474  21.5493  21.6819  23.9111  26.0920  27.4806  30.4342

          k =-0.2500 0.4167-0.2500 (  1419 PWs)   bands (ev):

   -45.3477 -18.0629 -17.2811 -17.2768 -16.6363   0.4270   1.3959   1.4078
    10.9584  16.3044  21.7945  21.8185  23.7908  25.8752  27.3617  30.9866

          k =-0.3333 0.5000-0.3333 (  1430 PWs)   bands (ev):

   -45.3447 -18.1441 -17.2824 -17.2816 -16.5262   0.1500   1.3277   1.3571
    11.9999  15.3122  21.6436  22.0211  24.0843  25.7542  27.1945  30.5394

          k = 0.5833-0.4167 0.5833 (  1434 PWs)   bands (ev):

   -45.3431 -18.1827 -17.2859 -17.2814 -16.4721   0.0148   1.2880   1.3350
    12.7950  14.5817  21.4589  22.1780  24.4655  25.5402  27.0884  30.2151

          k = 0.5000-0.3333 0.5000 (  1429 PWs)   bands (ev):

   -45.3433 -18.1765 -17.2886 -17.2784 -16.4807   0.0429   1.2867   1.3471
    12.5897  14.7766  21.3401  22.3421  24.8121  25.0735  27.0581  30.3543

          k = 0.4167-0.2500 0.4167 (  1427 PWs)   bands (ev):

   -45.3456 -18.1258 -17.2886 -17.2741 -16.5512   0.2288   1.3243   1.3901
    11.6588  15.6384  21.2853  22.4962  24.4565  25.0976  27.1568  30.9082

          k = 0.3333-0.1667 0.3333 (  1417 PWs)   bands (ev):

   -45.3490 -18.0341 -17.2858 -17.2697 -16.6748   0.5427   1.3920   1.4536
    10.6056  16.6779  21.2445  22.4017  24.1531  25.3551  27.3432  31.2466

          k = 0.2500-0.0833 0.2500 (  1414 PWs)   bands (ev):

   -45.3529 -17.9090 -17.2804 -17.2663 -16.8356   0.9233   1.4732   1.5208
     9.6189  17.8562  21.1760  21.9296  24.4931  25.6813  27.2783  30.1939

          k = 0.1667-0.0000 0.1667 (  1424 PWs)   bands (ev):

   -45.3564 -17.7677 -17.2731 -17.2649 -17.0075   1.2721   1.5488   1.5727
     8.8486  19.1062  21.1258  21.4499  25.2003  26.0319  26.2369  29.4944

          k = 0.0000 0.3333 0.0000 (  1431 PWs)   bands (ev):

   -45.3540 -17.8302 -17.2798 -17.2798 -16.9141   1.0524   1.4995   1.4995
     9.4308  18.2687  21.3046  21.3046  23.4134  27.0636  28.2719  29.6231

          k =-0.0833 0.4167-0.0833 (  1425 PWs)   bands (ev):

   -45.3509 -17.8994 -17.2862 -17.2845 -16.8219   0.7985   1.4337   1.4420
    10.1379  17.3932  21.4090  21.4668  22.5737  27.1774  29.2185  29.6379

          k =-0.1667 0.5000-0.1667 (  1418 PWs)   bands (ev):

   -45.3471 -17.9797 -17.2906 -17.2893 -16.7159   0.5207   1.3374   1.3805
    11.0737  16.4743  21.0385  21.6768  22.5004  27.0456  29.2092  29.8945

          k =-0.2500 0.5833-0.2500 (  1428 PWs)   bands (ev):

   -45.3441 -18.0477 -17.2972 -17.2920 -16.6218   0.2942   1.2313   1.3311
    12.1050  15.6147  20.4879  21.8738  22.7877  26.8487  29.2509  30.1544

          k = 0.6667-0.3333 0.6667 (  1435 PWs)   bands (ev):

   -45.3422 -18.0919 -17.3066 -17.2900 -16.5578   0.1632   1.1475   1.3063
    13.0507  14.8486  20.0904  22.0574  23.1296  26.4869  29.0384  31.1016

          k = 0.5833-0.2500 0.5833 (  1429 PWs)   bands (ev):

   -45.3418 -18.1074 -17.3139 -17.2851 -16.5351   0.1475   1.1116   1.3131
    13.2407  14.7139  19.8944  22.2729  23.6023  25.7919  28.8100  31.7856

          k = 0.5000-0.1667 0.5000 (  1427 PWs)   bands (ev):

   -45.3433 -18.0933 -17.3157 -17.2786 -16.5582   0.2444   1.1370   1.3496
    12.4136  15.4296  19.9314  22.5740  24.2246  24.7911  28.7066  31.4836

          k = 0.4167-0.0833 0.4167 (  1416 PWs)   bands (ev):

   -45.3461 -18.0513 -17.3099 -17.2722 -16.6244   0.4341   1.2226   1.4067
    11.3934  16.2445  20.2122  22.9699  23.7478  24.8711  28.6602  31.1629

          k = 0.3333 0.0000 0.3333 (  1416 PWs)   bands (ev):

   -45.3497 -17.9864 -17.2970 -17.2677 -16.7234   0.6770   1.3481   1.4697
    10.4139  17.0622  20.6718  22.6387  23.7238  25.3957  28.3116  30.6635

          k = 0.0000 0.5000 0.0000 (  1427 PWs)   bands (ev):

   -45.3487 -17.8764 -17.2948 -17.2948 -16.8297   0.6743   1.3920   1.3920
    10.6749  16.9337  21.2791  21.5342  21.5342  27.9682  28.8167  31.5977

          k =-0.0833 0.5833-0.0833 (  1423 PWs)   bands (ev):

   -45.3456 -17.8830 -17.3025 -17.3012 -16.8075   0.5099   1.3107   1.3373
    11.4743  16.3246  20.2099  21.6732  21.7759  28.2560  28.4863  31.8495

          k =-0.1667 0.6667-0.1667 (  1424 PWs)   bands (ev):

   -45.3428 -17.9109 -17.3159 -17.3037 -16.7575   0.3824   1.1754   1.2923
    12.4399  15.7258  19.3555  21.8255  21.9398  28.2077  28.7090  31.6092

          k = 0.7500-0.2500 0.7500 (  1427 PWs)   bands (ev):

   -45.3408 -17.9483 -17.3344 -17.3017 -16.6943   0.3259   1.0184   1.2680
    13.4357  15.1342  18.7639  21.9751  22.0562  27.8779  29.4661  31.1851

          k = 0.6667-0.1667 0.6667 (  1430 PWs)   bands (ev):

   -45.3403 -17.9874 -17.3484 -17.2957 -16.6372   0.3332   0.8999   1.2712
    13.9866  14.8041  18.4772  22.1471  22.3866  27.0950  30.3024  30.9711

          k = 0.5833-0.0833 0.5833 (  1434 PWs)   bands (ev):

   -45.3413 -18.0222 -17.3488 -17.2872 -16.6022   0.3583   0.8958   1.3012
    13.3000  15.3553  18.6087  22.3850  23.0698  25.8900  30.1677  31.2333

          k = 0.5000 0.0000 0.5000 (  1428 PWs)   bands (ev):

   -45.3434 -18.0459 -17.3342 -17.2786 -16.5977   0.3792   1.0281   1.3508
    12.3406  15.8420  19.2366  22.7189  23.9890  24.6170  29.6676  31.1217

          k = 0.0000 0.6667 0.0000 (  1427 PWs)   bands (ev):

   -45.3435 -17.7989 -17.3098 -17.3098 -16.8898   0.4274   1.2901   1.2901
    12.1253  15.9639  19.1938  21.7480  21.7480  27.6567  29.1700  33.6181

          k =-0.0833 0.7500-0.0833 (  1421 PWs)   bands (ev):

   -45.3412 -17.7540 -17.3255 -17.3143 -16.9208   0.3634   1.2032   1.2517
    12.9780  15.5932  18.2601  21.7750  21.8476  27.4603  29.5681  33.5284

          k = 0.8333-0.1667 0.8333 (  1435 PWs)   bands (ev):

   -45.3398 -17.7636 -17.3615 -17.3134 -16.8725   0.3711   1.0295   1.2304
    13.9385  15.2604  17.5464  21.6253  21.9460  28.0197  29.5374  32.6018

          k = 0.7500-0.0833 0.7500 (  1435 PWs)   bands (ev):

   -45.3391 -17.8286 -17.3844 -17.3073 -16.7779   0.4685   0.8005   1.2331
    14.6664  14.9924  17.2008  21.6244  22.0518  28.8364  29.1047  31.3980

          k = 0.6667-0.0000 0.6667 (  1430 PWs)   bands (ev):

   -45.3396 -17.9260 -17.3765 -17.2978 -16.6795   0.5436   0.6699   1.2590
    14.1422  15.3029  17.5694  22.1097  22.1922  27.3768  30.4200  31.1179

          k = 0.0000 0.8333 0.0000 (  1411 PWs)   bands (ev):

   -45.3395 -17.6147 -17.3210 -17.3210 -17.0747   0.3162   1.2198   1.2198
    13.7039  15.3782  17.2555  21.8984  21.8984  26.7188  30.4857  34.2020

          k = 0.9167-0.0833 0.9167 (  1417 PWs)   bands (ev):

   -45.3385 -17.5551 -17.3777 -17.3219 -17.0794   0.3188   1.1400   1.2040
    14.5665  15.2233  16.4478  21.7702  21.9477  26.8536  30.8885  33.0906

          k = 0.8333 0.0000 0.8333 (  1426 PWs)   bands (ev):

   -45.3384 -17.6552 -17.4109 -17.3169 -16.9391   0.3924   0.9639   1.2088
    15.0831  15.1521  16.2485  21.5009  21.9929  27.7775  30.8811  31.1654

          k = 0.0000-1.0000 0.0000 (  1428 PWs)   bands (ev):

   -45.3384 -17.4242 -17.3250 -17.3250 -17.2684   0.2883   1.1936   1.1936
    15.1336  15.1825  15.7122  21.9513  21.9513  26.3631  31.2138  34.2164

          k =-0.1667 0.3333 0.0000 (  1425 PWs)   bands (ev):

   -45.3528 -17.8908 -17.2844 -17.2715 -16.8474   0.9288   1.4581   1.5020
     9.6922  17.8553  21.1089  21.7815  23.6441  26.4282  28.0770  29.8477

          k =-0.2500 0.4167-0.0833 (  1416 PWs)   bands (ev):

   -45.3490 -17.9851 -17.2943 -17.2737 -16.7216   0.6265   1.3582   1.4415
    10.5836  16.8791  20.8883  22.2869  23.1229  26.1567  28.5560  30.2953

          k =-0.3333 0.5000-0.1667 (  1426 PWs)   bands (ev):

   -45.3456 -18.0635 -17.3003 -17.2785 -16.6129   0.3509   1.2640   1.3768
    11.6075  15.9487  20.6491  22.2307  23.4670  25.8281  28.5448  30.7505

          k = 0.5833-0.4167 0.7500 (  1429 PWs)   bands (ev):

   -45.3430 -18.1141 -17.3024 -17.2839 -16.5404   0.1629   1.1980   1.3285
    12.6101  15.0932  20.4715  22.0127  24.0381  25.5246  28.5367  31.2824

          k = 0.5000-0.3333 0.6667 (  1436 PWs)   bands (ev):

   -45.3422 -18.1315 -17.3025 -17.2865 -16.5151   0.0962   1.1741   1.3106
    13.1909  14.5795  20.4104  21.9278  24.2874  25.3819  28.5450  31.3637

          k =-0.1667 0.5000 0.0000 (  1417 PWs)   bands (ev):

   -45.3477 -17.9296 -17.3000 -17.2864 -16.7696   0.6077   1.3409   1.3928
    10.8849  16.7305  20.8072  21.8997  22.0274  27.3451  29.2410  30.4023

          k =-0.2500 0.5833-0.0833 (  1423 PWs)   bands (ev):

   -45.3446 -17.9678 -17.3114 -17.2917 -16.7058   0.4310   1.2204   1.3307
    11.8286  16.0545  20.0604  21.5622  22.6587  27.1124  29.3802  30.7249

          k = 0.6667-0.3333 0.8333 (  1428 PWs)   bands (ev):

   -45.3421 -18.0025 -17.3197 -17.2985 -16.6469   0.3106   1.0970   1.2824
    12.8398  15.3841  19.4885  21.3318  23.2308  26.7168  29.9649  30.6704

          k = 0.5833-0.2500 0.7500 (  1433 PWs)   bands (ev):

   -45.3409 -18.0270 -17.3279 -17.2994 -16.6063   0.2613   1.0090   1.2638
    13.6784  14.7742  19.1698  21.2718  23.7266  26.1800  30.4144  30.9980

          k = 0.5000-0.1667 0.6667 (  1430 PWs)   bands (ev):

   -45.3412 -18.0383 -17.3326 -17.2935 -16.5931   0.2783   0.9939   1.2800
    13.4054  15.0282  19.1306  21.4643  24.2264  25.4313  30.2577  31.1701

          k = 0.4167-0.0833 0.5833 (  1427 PWs)   bands (ev):

   -45.3430 -18.0352 -17.3284 -17.2849 -16.6110   0.3497   1.0662   1.3250
    12.4668  15.6905  19.4333  21.8669  24.1856  25.1228  30.0104  30.6774

          k = 0.3333 0.0000 0.5000 (  1412 PWs)   bands (ev):

   -45.3457 -18.0169 -17.3144 -17.2774 -16.6570   0.4687   1.2049   1.3856
    11.4709  16.2936  20.0705  22.3920  23.2474  25.7129  29.5953  30.3387

          k =-0.1667 0.6667-0.0000 (  1425 PWs)   bands (ev):

   -45.3431 -17.8563 -17.3157 -17.3082 -16.8181   0.4157   1.2291   1.2767
    12.2942  15.8807  19.2429  21.3950  22.2174  28.1058  28.6325  32.9372

          k = 0.7500-0.2500 0.9167 (  1426 PWs)   bands (ev):

   -45.3409 -17.8543 -17.3342 -17.3174 -16.7910   0.3789   1.0850   1.2264
    13.2526  15.4725  18.4550  21.0065  22.7264  28.0574  28.7890  32.3470

          k = 0.6667-0.1667 0.8333 (  1433 PWs)   bands (ev):

   -45.3397 -17.8788 -17.3580 -17.3161 -16.7374   0.4145   0.9003   1.2095
    14.1826  15.0396  17.9584  20.7497  23.1632  27.6691  29.4021  31.5514

          k = 0.5833-0.0833 0.7500 (  1428 PWs)   bands (ev):

   -45.3396 -17.9267 -17.3665 -17.3076 -16.6791   0.4738   0.7728   1.2256
    14.2262  15.1064  17.8921  20.8469  23.6368  26.6946  30.3966  31.0575

          k = 0.5000 0.0000 0.6667 (  1431 PWs)   bands (ev):

   -45.3409 -17.9848 -17.3541 -17.2958 -16.6338   0.4190   0.8624   1.2685
    13.4018  15.4779  18.4261  21.2879  24.2715  25.4323  30.7008  31.1237

          k = 0.8333-0.1667 1.0000 (  1426 PWs)   bands (ev):

   -45.3396 -17.6913 -17.3481 -17.3273 -16.9545   0.3494   1.1513   1.1850
    13.8346  15.3578  17.3949  21.2805  22.3433  27.3787  29.9318  32.6629

          k = 0.7500-0.0833 0.9167 (  1424 PWs)   bands (ev):

   -45.3386 -17.7039 -17.3902 -17.3295 -16.8929   0.4089   0.9850   1.1642
    14.7186  15.1735  16.8158  20.7506  22.7704  27.9915  29.6029  31.4233

          k = 0.6667 0.0000 0.8333 (  1431 PWs)   bands (ev):

   -45.3387 -17.8005 -17.3931 -17.3213 -16.7866   0.5369   0.7560   1.1826
    14.8421  15.1895  16.9437  20.5433  23.1523  28.2811  29.0996  31.0137

          k =-0.1667-1.0000-0.0000 (  1416 PWs)   bands (ev):

   -45.3382 -17.5445 -17.4174 -17.3316 -17.0389   0.3415   1.1240   1.1488
    15.1392  15.1818  15.9870  21.2355  22.3884  27.0966  31.1709  31.6069

          k = 0.6667-0.3333 1.0000 (  1429 PWs)   bands (ev):

   -45.3422 -17.9506 -17.3319 -17.3022 -16.6934   0.3948   1.0682   1.2630
    12.7530  15.6884  19.1308  20.9501  23.5268  26.5793  29.5538  31.8550

          k = 0.5833-0.2500 0.9167 (  1428 PWs)   bands (ev):

   -45.3403 -17.9342 -17.3458 -17.3165 -16.6828   0.4116   0.9233   1.2050
    13.7075  15.2924  18.5029  20.4026  24.3891  25.9702  29.9667  31.5899

          k = 0.5000-0.1667 0.8333 (  1422 PWs)   bands (ev):

   -45.3394 -17.9273 -17.3504 -17.3233 -16.6787   0.4341   0.8555   1.1828
    14.3512  14.8865  18.2871  20.1742  24.8726  25.6003  30.4048  30.9898

          k = 0.6667-0.1667 1.0000 (  1434 PWs)   bands (ev):

   -45.3395 -17.8129 -17.3519 -17.3448 -16.7913   0.4404   0.9734   1.1295
    14.1531  15.3067  17.7520  20.1445  23.6378  27.5761  28.9474  31.5375

          k = 0.5833-0.0833 0.9167 (  1428 PWs)   bands (ev):

   -45.3387 -17.8115 -17.3746 -17.3485 -16.7640   0.5607   0.8001   1.0942
    14.8818  15.0951  17.4452  19.6006  24.4526  26.8109  29.3375  30.8634

          k = 0.5000 0.0000 0.8333 (  1430 PWs)   bands (ev):

   -45.3390 -17.8604 -17.3688 -17.3374 -16.7242   0.5761   0.7468   1.1296
    14.5190  15.2448  17.7392  19.7068  25.1874  25.6738  29.8661  30.8348

          k =-0.3333-1.0000 0.0000 (  1430 PWs)   bands (ev):

   -45.3384 -17.7183 -17.3991 -17.3496 -16.8451   0.4896   0.9397   1.0599
    15.1501  15.1767  16.7171  19.8983  23.6683  28.4163  28.4453  30.9332

          k =-0.5000-1.0000 0.0000 (  1424 PWs)   bands (ev):

   -45.3383 -17.7809 -17.3743 -17.3743 -16.7724   0.7061   0.7061   1.0163
    15.1651  15.1651  17.3479  19.0354  25.7147  25.7147  29.2722  30.5922

     the Fermi energy is     4.3913 ev

!    total energy              =    -133.19957767 Ry
     estimated scf accuracy    <          8.2E-11 Ry
     smearing contrib. (-TS)   =      -0.00000000 Ry
     internal energy E=F+TS    =    -133.19957767 Ry

     The total energy is F=E-TS. E is the sum of the following terms:
     one-electron contribution =     -64.75922995 Ry
     hartree contribution      =      38.45379252 Ry
     xc contribution           =     -22.01138807 Ry
     ewald contribution        =     -84.88275216 Ry

     convergence has been achieved in   8 iterations

     Writing all to output data dir out/mp-682.save/
 
     init_run     :      0.16s CPU      0.18s WALL (       1 calls)
     electrons    :      3.25s CPU      3.78s WALL (       1 calls)

     Called by init_run:
     wfcinit      :      0.13s CPU      0.14s WALL (       1 calls)
     potinit      :      0.01s CPU      0.01s WALL (       1 calls)
     hinit0       :      0.00s CPU      0.01s WALL (       1 calls)

     Called by electrons:
     c_bands      :      2.95s CPU      3.43s WALL (       8 calls)
     sum_band     :      0.28s CPU      0.30s WALL (       8 calls)
     v_of_rho     :      0.01s CPU      0.01s WALL (       9 calls)
     mix_rho      :      0.00s CPU      0.00s WALL (       8 calls)

     Called by c_bands:
     init_us_2    :      0.01s CPU      0.01s WALL (    1224 calls)
     init_us_2:cp :      0.01s CPU      0.01s WALL (    1224 calls)
     cegterg      :      2.92s CPU      3.04s WALL (     576 calls)

     Called by *egterg:
     cdiaghg      :      0.63s CPU      0.65s WALL (    3489 calls)
     h_psi        :      2.21s CPU      2.30s WALL (    3561 calls)
     g_psi        :      0.01s CPU      0.01s WALL (    2913 calls)

     Called by h_psi:
     h_psi:calbec :      0.05s CPU      0.06s WALL (    3561 calls)
     vloc_psi     :      2.13s CPU      2.22s WALL (    3561 calls)
     add_vuspsi   :      0.01s CPU      0.01s WALL (    3561 calls)

     General routines
     calbec       :      0.05s CPU      0.05s WALL (    3561 calls)
     fft          :      0.01s CPU      0.01s WALL (      89 calls)
     ffts         :      0.00s CPU      0.00s WALL (       8 calls)
     fftw         :      2.29s CPU      2.39s WALL (   80898 calls)
 
     Parallel routines
 
     PWSCF        :      3.57s CPU      5.19s WALL

 
   This run was terminated on:  15:10:35   8Apr2024            

=------------------------------------------------------------------------------=
   JOB DONE.
=------------------------------------------------------------------------------=
