
     Program PWSCF v.7.1 starts on 11Apr2024 at  9:51:55 

     This program is part of the open-source Quantum ESPRESSO suite
     for quantum simulation of materials; please cite
         "P. Giannozzi et al., J. Phys.:Condens. Matter 21 395502 (2009);
         "P. Giannozzi et al., J. Phys.:Condens. Matter 29 465901 (2017);
         "P. Giannozzi et al., J. Chem. Phys. 152 154105 (2020);
          URL http://www.quantum-espresso.org", 
     in publications or presentations arising from this work. More details at
     http://www.quantum-espresso.org/quote

     Parallel version (MPI), running on    16 processors

     MPI processes distributed on     1 nodes
     246647 MiB available memory on the printing compute node when the environment starts
 
     Reading input from pw_mp-23193_nscf_k3000_E130.in
Warning: card &IONS ignored
Warning: card / ignored
Warning: card &CELL ignored
Warning: card / ignored

     Current dimensions of program PWSCF are:
     Max number of different atomic species (ntypx) = 10
     Max number of k-points (npk) =  40000
     Max angular momentum in pseudopotentials (lmaxx) =  4

     Atomic positions and unit cell read from directory:
     out/mp-23193.save/
     Atomic positions from file used, from input discarded
 
 
     R & G space division:  proc/nbgrp/npool/nimage =      16
     Subspace diagonalization in iterative solution of the eigenvalue problem:
     a serial algorithm will be used

 
     Parallelization info
     --------------------
     sticks:   dense  smooth     PW     G-vecs:    dense   smooth      PW
     Min         157     157     43                 5230     5230     773
     Max         158     158     44                 5234     5234     775
     Sum        2527    2527    703                83731    83731   12387
 
     Using Slab Decomposition
 


     bravais-lattice index     =            2
     lattice parameter (alat)  =      11.8746  a.u.
     unit-cell volume          =     418.5927 (a.u.)^3
     number of atoms/cell      =            2
     number of atomic types    =            2
     number of electrons       =        16.00
     number of Kohn-Sham states=           16
     kinetic-energy cutoff     =     130.0000  Ry
     charge density cutoff     =     520.0000  Ry
     Exchange-correlation= PBE
                           (   1   4   3   4   0   0   0)

     celldm(1)=  11.874552  celldm(2)=   0.000000  celldm(3)=   0.000000
     celldm(4)=   0.000000  celldm(5)=   0.000000  celldm(6)=   0.000000

     crystal axes: (cart. coord. in units of alat)
               a(1) = (  -0.500000   0.000000   0.500000 )  
               a(2) = (   0.000000   0.500000   0.500000 )  
               a(3) = (  -0.500000   0.500000   0.000000 )  

     reciprocal axes: (cart. coord. in units 2 pi/alat)
               b(1) = ( -1.000000 -1.000000  1.000000 )  
               b(2) = (  1.000000  1.000000  1.000000 )  
               b(3) = ( -1.000000  1.000000 -1.000000 )  


     PseudoPot. # 1 for Cl read from file:
     /usr/scratch4/magr4826/Promotion/Python/Code/devEb/pseudo/SG15/Cl.upf
     MD5 check sum: 0f993535b366f580ecbcdacce103c843
     Pseudo is Norm-conserving, Zval =  7.0
     Generated using ONCVPSP code by D. R. Hamann
     Using radial grid of  602 points,  4 beta functions with: 
                l(1) =   0
                l(2) =   0
                l(3) =   1
                l(4) =   1

     PseudoPot. # 2 for K  read from file:
     /usr/scratch4/magr4826/Promotion/Python/Code/devEb/pseudo/SG15/K.upf
     MD5 check sum: 254690d02b26e0029262a4c77e854448
     Pseudo is Norm-conserving, Zval =  9.0
     Generated using ONCVPSP code by D. R. Hamann
     Using radial grid of  602 points,  6 beta functions with: 
                l(1) =   0
                l(2) =   0
                l(3) =   1
                l(4) =   1
                l(5) =   2
                l(6) =   2

     atomic species   valence    mass     pseudopotential
        Cl             7.00    35.45300     Cl( 1.00)
        K              9.00    39.09830     K ( 1.00)

     48 Sym. Ops., with inversion, found



   Cartesian axes

     site n.     atom                  positions (alat units)
         1           K   tau(   1) = (   0.0000000   0.0000000   0.0000000  )
         2           Cl  tau(   2) = (  -0.5000000   0.5000000   0.5000000  )

     number of k points=    72  Gaussian smearing, width (Ry)=  0.0005
                       cart. coord. in units 2pi/alat
        k(    1) = (   0.0000000   0.0000000   0.0000000), wk =   0.0011574
        k(    2) = (  -0.0833333   0.0833333  -0.0833333), wk =   0.0092593
        k(    3) = (  -0.1666667   0.1666667  -0.1666667), wk =   0.0092593
        k(    4) = (  -0.2500000   0.2500000  -0.2500000), wk =   0.0092593
        k(    5) = (  -0.3333333   0.3333333  -0.3333333), wk =   0.0092593
        k(    6) = (  -0.4166667   0.4166667  -0.4166667), wk =   0.0092593
        k(    7) = (   0.5000000  -0.5000000   0.5000000), wk =   0.0046296
        k(    8) = (   0.0000000   0.1666667   0.0000000), wk =   0.0069444
        k(    9) = (  -0.0833333   0.2500000  -0.0833333), wk =   0.0277778
        k(   10) = (  -0.1666667   0.3333333  -0.1666667), wk =   0.0277778
        k(   11) = (  -0.2500000   0.4166667  -0.2500000), wk =   0.0277778
        k(   12) = (  -0.3333333   0.5000000  -0.3333333), wk =   0.0277778
        k(   13) = (   0.5833333  -0.4166667   0.5833333), wk =   0.0277778
        k(   14) = (   0.5000000  -0.3333333   0.5000000), wk =   0.0277778
        k(   15) = (   0.4166667  -0.2500000   0.4166667), wk =   0.0277778
        k(   16) = (   0.3333333  -0.1666667   0.3333333), wk =   0.0277778
        k(   17) = (   0.2500000  -0.0833333   0.2500000), wk =   0.0277778
        k(   18) = (   0.1666667  -0.0000000   0.1666667), wk =   0.0138889
        k(   19) = (   0.0000000   0.3333333   0.0000000), wk =   0.0069444
        k(   20) = (  -0.0833333   0.4166667  -0.0833333), wk =   0.0277778
        k(   21) = (  -0.1666667   0.5000000  -0.1666667), wk =   0.0277778
        k(   22) = (  -0.2500000   0.5833333  -0.2500000), wk =   0.0277778
        k(   23) = (   0.6666667  -0.3333333   0.6666667), wk =   0.0277778
        k(   24) = (   0.5833333  -0.2500000   0.5833333), wk =   0.0277778
        k(   25) = (   0.5000000  -0.1666667   0.5000000), wk =   0.0277778
        k(   26) = (   0.4166667  -0.0833333   0.4166667), wk =   0.0277778
        k(   27) = (   0.3333333   0.0000000   0.3333333), wk =   0.0138889
        k(   28) = (   0.0000000   0.5000000   0.0000000), wk =   0.0069444
        k(   29) = (  -0.0833333   0.5833333  -0.0833333), wk =   0.0277778
        k(   30) = (  -0.1666667   0.6666667  -0.1666667), wk =   0.0277778
        k(   31) = (   0.7500000  -0.2500000   0.7500000), wk =   0.0277778
        k(   32) = (   0.6666667  -0.1666667   0.6666667), wk =   0.0277778
        k(   33) = (   0.5833333  -0.0833333   0.5833333), wk =   0.0277778
        k(   34) = (   0.5000000   0.0000000   0.5000000), wk =   0.0138889
        k(   35) = (   0.0000000   0.6666667   0.0000000), wk =   0.0069444
        k(   36) = (  -0.0833333   0.7500000  -0.0833333), wk =   0.0277778
        k(   37) = (   0.8333333  -0.1666667   0.8333333), wk =   0.0277778
        k(   38) = (   0.7500000  -0.0833333   0.7500000), wk =   0.0277778
        k(   39) = (   0.6666667  -0.0000000   0.6666667), wk =   0.0138889
        k(   40) = (   0.0000000   0.8333333   0.0000000), wk =   0.0069444
        k(   41) = (   0.9166667  -0.0833333   0.9166667), wk =   0.0277778
        k(   42) = (   0.8333333   0.0000000   0.8333333), wk =   0.0138889
        k(   43) = (   0.0000000  -1.0000000   0.0000000), wk =   0.0034722
        k(   44) = (  -0.1666667   0.3333333  -0.0000000), wk =   0.0277778
        k(   45) = (  -0.2500000   0.4166667  -0.0833333), wk =   0.0555556
        k(   46) = (  -0.3333333   0.5000000  -0.1666667), wk =   0.0555556
        k(   47) = (   0.5833333  -0.4166667   0.7500000), wk =   0.0555556
        k(   48) = (   0.5000000  -0.3333333   0.6666667), wk =   0.0277778
        k(   49) = (  -0.1666667   0.5000000   0.0000000), wk =   0.0277778
        k(   50) = (  -0.2500000   0.5833333  -0.0833333), wk =   0.0555556
        k(   51) = (   0.6666667  -0.3333333   0.8333333), wk =   0.0555556
        k(   52) = (   0.5833333  -0.2500000   0.7500000), wk =   0.0555556
        k(   53) = (   0.5000000  -0.1666667   0.6666667), wk =   0.0555556
        k(   54) = (   0.4166667  -0.0833333   0.5833333), wk =   0.0555556
        k(   55) = (   0.3333333   0.0000000   0.5000000), wk =   0.0277778
        k(   56) = (  -0.1666667   0.6666667  -0.0000000), wk =   0.0277778
        k(   57) = (   0.7500000  -0.2500000   0.9166667), wk =   0.0555556
        k(   58) = (   0.6666667  -0.1666667   0.8333333), wk =   0.0555556
        k(   59) = (   0.5833333  -0.0833333   0.7500000), wk =   0.0555556
        k(   60) = (   0.5000000  -0.0000000   0.6666667), wk =   0.0277778
        k(   61) = (   0.8333333  -0.1666667   1.0000000), wk =   0.0277778
        k(   62) = (   0.7500000  -0.0833333   0.9166667), wk =   0.0555556
        k(   63) = (   0.6666667   0.0000000   0.8333333), wk =   0.0277778
        k(   64) = (  -0.1666667  -1.0000000   0.0000000), wk =   0.0138889
        k(   65) = (   0.6666667  -0.3333333   1.0000000), wk =   0.0277778
        k(   66) = (   0.5833333  -0.2500000   0.9166667), wk =   0.0555556
        k(   67) = (   0.5000000  -0.1666667   0.8333333), wk =   0.0277778
        k(   68) = (   0.6666667  -0.1666667   1.0000000), wk =   0.0277778
        k(   69) = (   0.5833333  -0.0833333   0.9166667), wk =   0.0555556
        k(   70) = (   0.5000000   0.0000000   0.8333333), wk =   0.0277778
        k(   71) = (  -0.3333333  -1.0000000   0.0000000), wk =   0.0138889
        k(   72) = (  -0.5000000  -1.0000000   0.0000000), wk =   0.0069444

     Dense  grid:    83731 G-vectors     FFT dimensions: (  64,  64,  64)

     Estimated max dynamical RAM per process >      18.24 MB

     Estimated total dynamical RAM >     291.92 MB

     The potential is recalculated from file :
     out/mp-23193.save/charge-density

     Starting wfcs are random

     Band Structure Calculation
     Davidson diagonalization with overlap

     ethr =  5.00E-06,  avg # of iterations = 25.7

     total cpu time spent up to now is        9.8 secs

     End of band structure calculation

          k = 0.0000 0.0000 0.0000 ( 10489 PWs)   bands (ev):

   -26.3066 -11.2190  -9.7686  -9.7686  -9.7686   0.8767   0.8767   0.8767
     6.0869   9.2931   9.2931   9.2931  10.1763  10.1763  13.8772  17.1203

          k =-0.0833 0.0833-0.0833 ( 10507 PWs)   bands (ev):

   -26.3059 -11.2337  -9.7692  -9.7692  -9.7503   0.7871   0.8532   0.8532
     6.2596   9.2321   9.3803   9.3803  10.2709  10.2709  14.1433  16.6679

          k =-0.1667 0.1667-0.1667 ( 10489 PWs)   bands (ev):

   -26.3039 -11.2722  -9.7709  -9.7709  -9.7018   0.5615   0.7901   0.7901
     6.7233   9.1193   9.6352   9.6352  10.5444  10.5444  14.7259  15.9134

          k =-0.2500 0.2500-0.2500 ( 10480 PWs)   bands (ev):

   -26.3012 -11.3213  -9.7732  -9.7732  -9.6388   0.2875   0.7067   0.7067
     7.3476   9.0752  10.0392  10.0392  10.9647  10.9647  14.4425  15.2913

          k =-0.3333 0.3333-0.3333 ( 10471 PWs)   bands (ev):

   -26.2985 -11.3672  -9.7755  -9.7755  -9.5789   0.0422   0.6261   0.6261
     7.9576   9.1735  10.5584  10.5584  11.4735  11.4735  13.7032  14.3234

          k =-0.4167 0.4167-0.4167 ( 10492 PWs)   bands (ev):

   -26.2965 -11.3990  -9.7772  -9.7772  -9.5367  -0.1237   0.5689   0.5689
     8.3678   9.3823  11.1054  11.1054  11.9885  11.9886  13.2014  13.4241

          k = 0.5000-0.5000 0.5000 ( 10452 PWs)   bands (ev):

   -26.2958 -11.4103  -9.7778  -9.7778  -9.5215  -0.1820   0.5482   0.5482
     8.5041   9.4972  11.3921  11.3921  12.3709  12.3709  12.8480  12.8496

          k = 0.0000 0.1667 0.0000 ( 10509 PWs)   bands (ev):

   -26.3056 -11.2368  -9.7723  -9.7723  -9.7410   0.7423   0.8569   0.8569
     6.3102   9.0906   9.4730   9.4730  10.2306  10.3705  14.2271  16.6018

          k =-0.0833 0.2500-0.0833 ( 10487 PWs)   bands (ev):

   -26.3041 -11.2628  -9.7762  -9.7739  -9.7069   0.5724   0.8066   0.8173
     6.6614   8.9321   9.6882   9.7307  10.3761  10.6402  14.7218  15.8536

          k =-0.1667 0.3333-0.1667 ( 10476 PWs)   bands (ev):

   -26.3016 -11.3026  -9.7797  -9.7749  -9.6576   0.3437   0.7188   0.7469
     7.2214   8.8661   9.9999  10.1326  10.6906  11.0408  14.5913  15.3141

          k =-0.2500 0.4167-0.2500 ( 10487 PWs)   bands (ev):

   -26.2989 -11.3442  -9.7821  -9.7773  -9.6054   0.1178   0.6286   0.6661
     7.8401   8.9504  10.4114  10.6463  11.1296  11.4954  13.7330  14.4581

          k =-0.3333 0.5000-0.3333 ( 10476 PWs)   bands (ev):

   -26.2967 -11.3771  -9.7825  -9.7811  -9.5631  -0.0543   0.5617   0.5966
     8.3168   9.2025  10.8714  11.1876  11.6369  11.8775  13.0976  13.6201

          k = 0.5833-0.4167 0.5833 ( 10469 PWs)   bands (ev):

   -26.2955 -11.3939  -9.7850  -9.7810  -9.5407  -0.1400   0.5335   0.5552
     8.5382   9.4361  11.2416  11.4400  12.0442  12.2639  12.8053  12.9498

          k = 0.5000-0.3333 0.5000 ( 10472 PWs)   bands (ev):

   -26.2958 -11.3914  -9.7880  -9.7779  -9.5433  -0.1242   0.5497   0.5516
     8.5000   9.4059  11.1530  11.3206  11.7918  12.4071  12.8741  13.1362

          k = 0.4167-0.2500 0.4167 ( 10473 PWs)   bands (ev):

   -26.2973 -11.3700  -9.7889  -9.7740  -9.5706  -0.0090   0.5867   0.6058
     8.1931   9.1708  10.6210  11.0232  11.3621  11.9188  13.2518  14.0489

          k = 0.3333-0.1667 0.3333 ( 10478 PWs)   bands (ev):

   -26.2998 -11.3341  -9.7872  -9.7705  -9.6169   0.1869   0.6526   0.6879
     7.6472   8.9975  10.1089  10.5146  10.9684  11.3742  13.9607  14.8105

          k = 0.2500-0.0833 0.2500 ( 10485 PWs)   bands (ev):

   -26.3025 -11.2919  -9.7828  -9.7682  -9.6716   0.4258   0.7333   0.7736
     7.0287   8.9882   9.7099  10.0359  10.6035  10.8753  14.8187  15.1983

          k = 0.1667-0.0000 0.1667 ( 10495 PWs)   bands (ev):

   -26.3047 -11.2545  -9.7762  -9.7677  -9.7211   0.6507   0.8072   0.8355
     6.5228   9.1003   9.4610   9.6452  10.3534  10.4932  14.5267  15.9849

          k = 0.0000 0.3333 0.0000 ( 10473 PWs)   bands (ev):

   -26.3030 -11.2668  -9.7825  -9.7825  -9.6933   0.4641   0.8067   0.8067
     6.8589   8.6384   9.9880   9.9880  10.3848  10.8797  15.0609  15.5540

          k =-0.0833 0.4167-0.0833 ( 10449 PWs)   bands (ev):

   -26.3010 -11.2831  -9.7883  -9.7865  -9.6731   0.3153   0.7468   0.7617
     7.2855   8.4654  10.3360  10.3807  10.5716  11.2110  14.4883  15.2039

          k =-0.1667 0.5000-0.1667 ( 10484 PWs)   bands (ev):

   -26.2986 -11.3064  -9.7919  -9.7897  -9.6477   0.1691   0.6480   0.6958
     7.8473   8.4799  10.7045  10.8581  10.9255  11.5202  13.5330  14.5270

          k =-0.2500 0.5833-0.2500 ( 10476 PWs)   bands (ev):

   -26.2964 -11.3298  -9.7961  -9.7924  -9.6195   0.0498   0.5538   0.6274
     8.3074   8.7931  11.0311  11.3362  11.4089  11.6329  12.8800  13.8103

          k = 0.6667-0.3333 0.6667 ( 10468 PWs)   bands (ev):

   -26.2950 -11.3474  -9.8050  -9.7897  -9.5946  -0.0267   0.4993   0.5743
     8.5635   9.2361  11.1706  11.5328  11.5607  12.0353  12.6951  13.2310

          k = 0.5833-0.2500 0.5833 ( 10465 PWs)   bands (ev):

   -26.2948 -11.3552  -9.8126  -9.7844  -9.5804  -0.0475   0.4998   0.5493
     8.6659   9.3775  11.0532  11.3250  11.5488  12.6860  12.7738  12.9533

          k = 0.5000-0.1667 0.5000 ( 10469 PWs)   bands (ev):

   -26.2958 -11.3516  -9.8150  -9.7781  -9.5819  -0.0046   0.5508   0.5584
     8.5106   9.1825  10.8294  10.9855  11.4612  12.4168  12.8324  13.6325

          k = 0.4167-0.0833 0.4167 ( 10470 PWs)   bands (ev):

   -26.2979 -11.3374  -9.8103  -9.7723  -9.6007   0.1005   0.5997   0.6330
     8.0810   8.9486  10.3368  10.9511  11.0489  11.8836  13.2502  14.5115

          k = 0.3333 0.0000 0.3333 ( 10493 PWs)   bands (ev):

   -26.3003 -11.3158  -9.7985  -9.7687  -9.6333   0.2540   0.6634   0.7176
     7.5195   8.8924   9.9500  10.5436  10.7800  11.3389  14.0295  14.9481

          k = 0.0000 0.5000 0.0000 ( 10466 PWs)   bands (ev):

   -26.2995 -11.2685  -9.7966  -9.7966  -9.6896   0.2428   0.7468   0.7468
     7.5480   8.1589  10.6121  10.7639  10.7639  11.4298  13.9008  14.9533

          k =-0.0833 0.5833-0.0833 ( 10459 PWs)   bands (ev):

   -26.2975 -11.2625  -9.8032  -9.8025  -9.7020   0.1753   0.6867   0.7068
     7.9772   8.0515  10.8119  11.1729  11.2316  11.5746  13.1345  14.5432

          k =-0.1667 0.6667-0.1667 ( 10479 PWs)   bands (ev):

   -26.2956 -11.2665  -9.8154  -9.8042  -9.6966   0.1340   0.5812   0.6531
     8.0821   8.5967  11.1492  11.3222  11.5769  11.6931  12.5909  14.0447

          k = 0.7500-0.2500 0.7500 ( 10487 PWs)   bands (ev):

   -26.2942 -11.2791  -9.8333  -9.8015  -9.6715   0.1150   0.4765   0.6004
     8.3038   9.1864  11.0465  11.3681  11.5642  11.9678  12.6414  13.6596

          k = 0.6667-0.1667 0.6667 ( 10476 PWs)   bands (ev):

   -26.2938 -11.2970  -9.8458  -9.7951  -9.6393   0.0930   0.4316   0.5623
     8.5973   9.4492  10.8952  11.0769  11.5946  12.2638  12.9408  13.5101

          k = 0.5833-0.0833 0.5833 ( 10467 PWs)   bands (ev):

   -26.2944 -11.3158  -9.8458  -9.7865  -9.6123   0.0626   0.4683   0.5483
     8.7476   9.2868  10.6541  11.1628  11.3970  12.6650  12.8525  13.4289

          k = 0.5000 0.0000 0.5000 ( 10479 PWs)   bands (ev):

   -26.2959 -11.3306  -9.8325  -9.7782  -9.5983   0.0579   0.5498   0.5618
     8.5361   9.0394  10.7032  10.7827  11.4339  12.4155  12.8160  13.8578

          k = 0.0000 0.6667 0.0000 ( 10470 PWs)   bands (ev):

   -26.2960 -11.2239  -9.8108  -9.8108  -9.7579   0.1662   0.6959   0.6959
     7.7705   8.2775  10.8629  11.5612  11.6489  11.6489  12.6289  14.4661

          k =-0.0833 0.7500-0.0833 ( 10482 PWs)   bands (ev):

   -26.2945 -11.2018  -9.8320  -9.8148  -9.7780   0.1721   0.6388   0.6664
     7.7185   8.7163  11.0498  11.2954  11.9146  12.0320  12.3048  14.2984

          k = 0.8333-0.1667 0.8333 ( 10488 PWs)   bands (ev):

   -26.2934 -11.2037  -9.8653  -9.8133  -9.7512   0.2046   0.5194   0.6266
     7.8762   9.2807  10.8088  11.3613  11.5185  12.1868  12.6876  14.1760

          k = 0.7500-0.0833 0.7500 ( 10499 PWs)   bands (ev):

   -26.2930 -11.2295  -9.8792  -9.8069  -9.7067   0.2504   0.3803   0.5873
     8.2008   9.7808  10.4416  11.0610  11.7642  12.0008  13.1757  13.9490

          k = 0.6667-0.0000 0.6667 ( 10463 PWs)   bands (ev):

   -26.2933 -11.2711  -9.8706  -9.7970  -9.6568   0.1788   0.3815   0.5588
     8.5824   9.5898  10.6505  10.9144  11.5736  12.2763  13.2849  13.6806

          k = 0.0000 0.8333 0.0000 ( 10466 PWs)   bands (ev):

   -26.2935 -11.1546  -9.8608  -9.8212  -9.8212   0.1920   0.6637   0.6637
     7.5239   8.9490  11.0651  11.1861  11.8568  12.3166  12.3166  14.5079

          k = 0.9167-0.0833 0.9167 ( 10502 PWs)   bands (ev):

   -26.2928 -11.1425  -9.8970  -9.8219  -9.8070   0.2200   0.6103   0.6459
     7.5555   9.2935  10.8647  11.2012  11.5424  12.4129  12.6165  14.6302

          k = 0.8333 0.0000 0.8333 ( 10490 PWs)   bands (ev):

   -26.2926 -11.1712  -9.9010  -9.8167  -9.7666   0.2613   0.4832   0.6179
     7.8014   9.7348  10.4059  11.2699  11.4513  12.2646  13.0052  14.2955

          k = 0.0000-1.0000 0.0000 ( 10478 PWs)   bands (ev):

   -26.2926 -11.1184  -9.9126  -9.8251  -9.8251   0.2183   0.6530   0.6530
     7.4399   9.2746  10.9726  11.1439  11.5236  12.5079  12.5079  14.8505

          k =-0.1667 0.3333-0.0000 ( 10496 PWs)   bands (ev):

   -26.3023 -11.2847  -9.7868  -9.7736  -9.6753   0.4080   0.7489   0.7815
     7.0490   8.7563   9.9064  10.1344  10.5297  10.9705  14.9209  15.0756

          k =-0.2500 0.4167-0.0833 ( 10475 PWs)   bands (ev):

   -26.2998 -11.3134  -9.7958  -9.7746  -9.6376   0.2254   0.6667   0.7108
     7.6028   8.7159  10.2315  10.6146  10.8131  11.3924  13.9337  14.8740

          k =-0.3333 0.5000-0.1667 ( 10465 PWs)   bands (ev):

   -26.2974 -11.3408  -9.8007  -9.7784  -9.6026   0.0660   0.5866   0.6315
     8.1638   8.8711  10.6484  11.0869  11.1460  11.8181  13.1709  14.1636

          k = 0.5833-0.4167 0.7500 ( 10476 PWs)   bands (ev):

   -26.2956 -11.3601  -9.8015  -9.7836  -9.5781  -0.0413   0.5299   0.5714
     8.5219   9.2036  11.0506  11.2379  11.6052  12.1969  12.7838  13.3915

          k = 0.5000-0.3333 0.6667 ( 10480 PWs)   bands (ev):

   -26.2949 -11.3671  -9.8008  -9.7864  -9.5694  -0.0791   0.5097   0.5492
     8.6422   9.3818  11.1956  11.3189  11.7529  12.6230  12.7305  12.7920

          k =-0.1667 0.5000 0.0000 ( 10460 PWs)   bands (ev):

   -26.2990 -11.2874  -9.8014  -9.7874  -9.6677   0.2107   0.6925   0.7168
     7.7155   8.3142  10.6820  10.7416  10.8696  11.4839  13.6651  14.8196

          k =-0.2500 0.5833-0.0833 ( 10470 PWs)   bands (ev):

   -26.2968 -11.2958  -9.8115  -9.7919  -9.6562   0.1271   0.6058   0.6521
     8.2149   8.4042  10.9955  11.0597  11.3100  11.6789  12.9358  14.2782

          k = 0.6667-0.3333 0.8333 ( 10468 PWs)   bands (ev):

   -26.2950 -11.3060  -9.8180  -9.7995  -9.6390   0.0737   0.5166   0.5931
     8.4473   8.9256  11.0191  11.3200  11.7111  11.8173  12.6416  13.6906

          k = 0.5833-0.2500 0.7500 ( 10481 PWs)   bands (ev):

   -26.2941 -11.3155  -9.8254  -9.8006  -9.6216   0.0450   0.4678   0.5541
     8.6738   9.2670  11.0076  11.1083  11.7857  12.3282  12.7494  13.2220

          k = 0.5000-0.1667 0.6667 ( 10477 PWs)   bands (ev):

   -26.2944 -11.3221  -9.8305  -9.7939  -9.6105   0.0371   0.4823   0.5442
     8.7514   9.2113  10.8119  11.2253  11.5886  12.6016  12.7170  13.2592

          k = 0.4167-0.0833 0.5833 ( 10470 PWs)   bands (ev):

   -26.2957 -11.3242  -9.8272  -9.7847  -9.6096   0.0596   0.5456   0.5685
     8.5633   8.9014  10.8475  10.9606  11.4875  12.2227  12.7669  13.8713

          k = 0.3333 0.0000 0.5000 ( 10469 PWs)   bands (ev):

   -26.2977 -11.3212  -9.8145  -9.7775  -9.6195   0.1232   0.6062   0.6409
     8.1101   8.7033  10.5506  10.9171  11.1189  11.8148  13.1814  14.5202

          k =-0.1667 0.6667-0.0000 ( 10469 PWs)   bands (ev):

   -26.2958 -11.2452  -9.8161  -9.8099  -9.7223   0.1551   0.6420   0.6615
     7.9463   8.4313  10.9812  11.4229  11.5855  11.7271  12.5897  14.3814

          k = 0.7500-0.2500 0.9167 ( 10479 PWs)   bands (ev):

   -26.2942 -11.2402  -9.8353  -9.8200  -9.7119   0.1635   0.5456   0.6109
     8.0600   8.9723  10.9019  11.4552  11.6496  11.9664  12.5528  14.0448

          k = 0.6667-0.1667 0.8333 ( 10482 PWs)   bands (ev):

   -26.2933 -11.2496  -9.8563  -9.8180  -9.6844   0.1884   0.4371   0.5693
     8.3364   9.4304  10.5980  11.1850  11.8501  12.1064  12.8977  13.7732

          k = 0.5833-0.0833 0.7500 ( 10474 PWs)   bands (ev):

   -26.2933 -11.2711  -9.8620  -9.8089  -9.6535   0.1697   0.4062   0.5430
     8.6774   9.3786  10.6713  10.9208  11.7837  12.3927  13.0627  13.5581

          k = 0.5000-0.0000 0.6667 ( 10470 PWs)   bands (ev):

   -26.2942 -11.2987  -9.8506  -9.7962  -9.6270   0.1024   0.4710   0.5388
     8.8372   9.0692  10.5781  11.3620  11.3695  12.5827  12.7518  13.6320

          k = 0.8333-0.1667 1.0000 ( 10470 PWs)   bands (ev):

   -26.2934 -11.1792  -9.8649  -9.8269  -9.7751   0.2020   0.6023   0.6263
     7.7106   9.1210  10.8997  11.2473  11.6727  12.2964  12.5377  14.3714

          k = 0.7500-0.0833 0.9167 ( 10483 PWs)   bands (ev):

   -26.2928 -11.1859  -9.8882  -9.8300  -9.7426   0.2532   0.4902   0.5891
     7.9151   9.6250  10.3865  11.2902  11.5360  12.3605  12.9330  14.2235

          k = 0.6667 0.0000 0.8333 ( 10495 PWs)   bands (ev):

   -26.2927 -11.2205  -9.8853  -9.8227  -9.6998   0.3236   0.3328   0.5604
     8.2810   9.7949  10.2657  10.9607  11.9362  12.1280  13.3608  13.6808

          k =-0.1667-1.0000 0.0000 ( 10482 PWs)   bands (ev):

   -26.2926 -11.1449  -9.9067  -9.8309  -9.7862   0.2401   0.5844   0.6144
     7.6299   9.4989  10.6149  11.3053  11.3981  12.5134  12.7130  14.6060

          k = 0.6667-0.3333 1.0000 ( 10477 PWs)   bands (ev):

   -26.2951 -11.2841  -9.8306  -9.8038  -9.6568   0.1195   0.5590   0.5747
     8.4282   8.7353  10.8319  11.4428  11.5692  11.8634  12.6393  14.1399

          k = 0.5833-0.2500 0.9167 ( 10471 PWs)   bands (ev):

   -26.2938 -11.2748  -9.8428  -9.8198  -9.6527   0.1423   0.4807   0.5319
     8.6561   9.0860  10.5827  11.2954  11.8485  12.2048  12.8004  13.6427

          k = 0.5000-0.1667 0.8333 ( 10498 PWs)   bands (ev):

   -26.2933 -11.2712  -9.8463  -9.8276  -9.6504   0.1618   0.4370   0.5199
     8.8630   9.0977  10.6974  10.8994  12.0473  12.6100  12.7902  13.2967

          k = 0.6667-0.1667 1.0000 ( 10483 PWs)   bands (ev):

   -26.2932 -11.2247  -9.8566  -9.8425  -9.6991   0.2202   0.5020   0.5321
     8.2326   9.3502  10.4289  11.3166  11.8049  12.2365  12.8991  13.9765

          k = 0.5833-0.0833 0.9167 ( 10491 PWs)   bands (ev):

   -26.2927 -11.2260  -9.8706  -9.8482  -9.6800   0.2871   0.4087   0.4975
     8.5631   9.3513  10.3647  10.9167  12.2495  12.3629  13.1712  13.5335

          k = 0.5000 0.0000 0.8333 ( 10492 PWs)   bands (ev):

   -26.2929 -11.2448  -9.8639  -9.8398  -9.6644   0.2424   0.4200   0.4948
     8.9389   8.9849  10.4947  10.8988  12.1571  12.5867  12.8854  13.6776

          k =-0.3333-1.0000 0.0000 ( 10504 PWs)   bands (ev):

   -26.2925 -11.1940  -9.8906  -9.8469  -9.7121   0.3039   0.4514   0.5177
     8.1637   9.8299  10.0106  11.0737  11.8394  12.5247  13.1319  13.8624

          k =-0.5000-1.0000 0.0000 ( 10484 PWs)   bands (ev):

   -26.2925 -11.2170  -9.8687  -9.8687  -9.6766   0.3869   0.4027   0.4027
     8.9448   8.9448  10.4124  10.7577  12.5304  12.5789  13.0039  13.6296

     the Fermi energy is     3.5728 ev
     (compare with:     3.5759 eV, computed in scf)

     Writing all to output data dir out/mp-23193.save/
 
     init_run     :      0.12s CPU      0.13s WALL (       1 calls)
     electrons    :      5.96s CPU      8.88s WALL (       1 calls)

     Called by init_run:
     wfcinit      :      0.00s CPU      0.00s WALL (       1 calls)
     potinit      :      0.04s CPU      0.04s WALL (       1 calls)
     hinit0       :      0.03s CPU      0.04s WALL (       1 calls)

     Called by electrons:
     c_bands      :      5.96s CPU      8.88s WALL (       1 calls)
     v_of_rho     :      0.03s CPU      0.03s WALL (       1 calls)

     Called by c_bands:
     init_us_2    :      0.01s CPU      0.01s WALL (      72 calls)
     init_us_2:cp :      0.01s CPU      0.01s WALL (      72 calls)
     cegterg      :      5.57s CPU      5.69s WALL (     135 calls)

     Called by *egterg:
     cdiaghg      :      0.48s CPU      0.49s WALL (    1920 calls)
     h_psi        :      4.91s CPU      5.02s WALL (    2055 calls)
     g_psi        :      0.03s CPU      0.03s WALL (    1848 calls)

     Called by h_psi:
     h_psi:calbec :      0.11s CPU      0.11s WALL (    2055 calls)
     vloc_psi     :      4.72s CPU      4.81s WALL (    2055 calls)
     add_vuspsi   :      0.07s CPU      0.07s WALL (    2055 calls)

     General routines
     calbec       :      0.11s CPU      0.11s WALL (    2055 calls)
     fft          :      0.02s CPU      0.03s WALL (      10 calls)
     fftw         :      4.36s CPU      4.45s WALL (   39178 calls)
 
     Parallel routines
 
     PWSCF        :      6.61s CPU     12.27s WALL

 
   This run was terminated on:   9:52: 7  11Apr2024            

=------------------------------------------------------------------------------=
   JOB DONE.
=------------------------------------------------------------------------------=
