
     Program PWSCF v.7.1 starts on 11Apr2024 at  9:51:50 

     This program is part of the open-source Quantum ESPRESSO suite
     for quantum simulation of materials; please cite
         "P. Giannozzi et al., J. Phys.:Condens. Matter 21 395502 (2009);
         "P. Giannozzi et al., J. Phys.:Condens. Matter 29 465901 (2017);
         "P. Giannozzi et al., J. Chem. Phys. 152 154105 (2020);
          URL http://www.quantum-espresso.org", 
     in publications or presentations arising from this work. More details at
     http://www.quantum-espresso.org/quote

     Parallel version (MPI), running on    16 processors

     MPI processes distributed on     1 nodes
     247463 MiB available memory on the printing compute node when the environment starts
 
     Reading input from pw_mp-682_nscf_k3000_E130.in
Warning: card &IONS ignored
Warning: card / ignored
Warning: card &CELL ignored
Warning: card / ignored

     Current dimensions of program PWSCF are:
     Max number of different atomic species (ntypx) = 10
     Max number of k-points (npk) =  40000
     Max angular momentum in pseudopotentials (lmaxx) =  4

     Atomic positions and unit cell read from directory:
     out/mp-682.save/
     Atomic positions from file used, from input discarded
 
 
     R & G space division:  proc/nbgrp/npool/nimage =      16
     Subspace diagonalization in iterative solution of the eigenvalue problem:
     a serial algorithm will be used

 
     Parallelization info
     --------------------
     sticks:   dense  smooth     PW     G-vecs:    dense   smooth      PW
     Min          84      84     24                 2019     2019     315
     Max          85      85     25                 2021     2021     318
     Sum        1345    1345    385                32311    32311    5065
 
     Using Slab Decomposition
 


     bravais-lattice index     =            2
     lattice parameter (alat)  =       8.6394  a.u.
     unit-cell volume          =     161.2111 (a.u.)^3
     number of atoms/cell      =            2
     number of atomic types    =            2
     number of electrons       =        16.00
     number of Kohn-Sham states=           16
     kinetic-energy cutoff     =     130.0000  Ry
     charge density cutoff     =     520.0000  Ry
     Exchange-correlation= PBE
                           (   1   4   3   4   0   0   0)

     celldm(1)=   8.639428  celldm(2)=   0.000000  celldm(3)=   0.000000
     celldm(4)=   0.000000  celldm(5)=   0.000000  celldm(6)=   0.000000

     crystal axes: (cart. coord. in units of alat)
               a(1) = (  -0.500000   0.000000   0.500000 )  
               a(2) = (   0.000000   0.500000   0.500000 )  
               a(3) = (  -0.500000   0.500000   0.000000 )  

     reciprocal axes: (cart. coord. in units 2 pi/alat)
               b(1) = ( -1.000000 -1.000000  1.000000 )  
               b(2) = (  1.000000  1.000000  1.000000 )  
               b(3) = ( -1.000000  1.000000 -1.000000 )  


     PseudoPot. # 1 for F  read from file:
     /usr/scratch4/magr4826/Promotion/Python/Code/devEb/pseudo/SG15/F.upf
     MD5 check sum: 1d8275f47d602dd53cad6bcdc0eda7dc
     Pseudo is Norm-conserving, Zval =  7.0
     Generated using ONCVPSP code by D. R. Hamann
     Using radial grid of  602 points,  4 beta functions with: 
                l(1) =   0
                l(2) =   0
                l(3) =   1
                l(4) =   1

     PseudoPot. # 2 for Na read from file:
     /usr/scratch4/magr4826/Promotion/Python/Code/devEb/pseudo/SG15/Na.upf
     MD5 check sum: 425b17ce8ead78efa4860b7b3310c7e3
     Pseudo is Norm-conserving, Zval =  9.0
     Generated using ONCVPSP code by D. R. Hamann
     Using radial grid of  602 points,  4 beta functions with: 
                l(1) =   0
                l(2) =   0
                l(3) =   1
                l(4) =   1

     atomic species   valence    mass     pseudopotential
        F              7.00    18.99840     F ( 1.00)
        Na             9.00    22.98980     Na( 1.00)

     48 Sym. Ops., with inversion, found



   Cartesian axes

     site n.     atom                  positions (alat units)
         1           Na  tau(   1) = (   0.0000000   0.0000000   0.0000000  )
         2           F   tau(   2) = (  -0.5000000   0.5000000   0.5000000  )

     number of k points=    72  Gaussian smearing, width (Ry)=  0.0005
                       cart. coord. in units 2pi/alat
        k(    1) = (   0.0000000   0.0000000   0.0000000), wk =   0.0011574
        k(    2) = (  -0.0833333   0.0833333  -0.0833333), wk =   0.0092593
        k(    3) = (  -0.1666667   0.1666667  -0.1666667), wk =   0.0092593
        k(    4) = (  -0.2500000   0.2500000  -0.2500000), wk =   0.0092593
        k(    5) = (  -0.3333333   0.3333333  -0.3333333), wk =   0.0092593
        k(    6) = (  -0.4166667   0.4166667  -0.4166667), wk =   0.0092593
        k(    7) = (   0.5000000  -0.5000000   0.5000000), wk =   0.0046296
        k(    8) = (   0.0000000   0.1666667   0.0000000), wk =   0.0069444
        k(    9) = (  -0.0833333   0.2500000  -0.0833333), wk =   0.0277778
        k(   10) = (  -0.1666667   0.3333333  -0.1666667), wk =   0.0277778
        k(   11) = (  -0.2500000   0.4166667  -0.2500000), wk =   0.0277778
        k(   12) = (  -0.3333333   0.5000000  -0.3333333), wk =   0.0277778
        k(   13) = (   0.5833333  -0.4166667   0.5833333), wk =   0.0277778
        k(   14) = (   0.5000000  -0.3333333   0.5000000), wk =   0.0277778
        k(   15) = (   0.4166667  -0.2500000   0.4166667), wk =   0.0277778
        k(   16) = (   0.3333333  -0.1666667   0.3333333), wk =   0.0277778
        k(   17) = (   0.2500000  -0.0833333   0.2500000), wk =   0.0277778
        k(   18) = (   0.1666667  -0.0000000   0.1666667), wk =   0.0138889
        k(   19) = (   0.0000000   0.3333333   0.0000000), wk =   0.0069444
        k(   20) = (  -0.0833333   0.4166667  -0.0833333), wk =   0.0277778
        k(   21) = (  -0.1666667   0.5000000  -0.1666667), wk =   0.0277778
        k(   22) = (  -0.2500000   0.5833333  -0.2500000), wk =   0.0277778
        k(   23) = (   0.6666667  -0.3333333   0.6666667), wk =   0.0277778
        k(   24) = (   0.5833333  -0.2500000   0.5833333), wk =   0.0277778
        k(   25) = (   0.5000000  -0.1666667   0.5000000), wk =   0.0277778
        k(   26) = (   0.4166667  -0.0833333   0.4166667), wk =   0.0277778
        k(   27) = (   0.3333333   0.0000000   0.3333333), wk =   0.0138889
        k(   28) = (   0.0000000   0.5000000   0.0000000), wk =   0.0069444
        k(   29) = (  -0.0833333   0.5833333  -0.0833333), wk =   0.0277778
        k(   30) = (  -0.1666667   0.6666667  -0.1666667), wk =   0.0277778
        k(   31) = (   0.7500000  -0.2500000   0.7500000), wk =   0.0277778
        k(   32) = (   0.6666667  -0.1666667   0.6666667), wk =   0.0277778
        k(   33) = (   0.5833333  -0.0833333   0.5833333), wk =   0.0277778
        k(   34) = (   0.5000000   0.0000000   0.5000000), wk =   0.0138889
        k(   35) = (   0.0000000   0.6666667   0.0000000), wk =   0.0069444
        k(   36) = (  -0.0833333   0.7500000  -0.0833333), wk =   0.0277778
        k(   37) = (   0.8333333  -0.1666667   0.8333333), wk =   0.0277778
        k(   38) = (   0.7500000  -0.0833333   0.7500000), wk =   0.0277778
        k(   39) = (   0.6666667  -0.0000000   0.6666667), wk =   0.0138889
        k(   40) = (   0.0000000   0.8333333   0.0000000), wk =   0.0069444
        k(   41) = (   0.9166667  -0.0833333   0.9166667), wk =   0.0277778
        k(   42) = (   0.8333333   0.0000000   0.8333333), wk =   0.0138889
        k(   43) = (   0.0000000  -1.0000000   0.0000000), wk =   0.0034722
        k(   44) = (  -0.1666667   0.3333333   0.0000000), wk =   0.0277778
        k(   45) = (  -0.2500000   0.4166667  -0.0833333), wk =   0.0555556
        k(   46) = (  -0.3333333   0.5000000  -0.1666667), wk =   0.0555556
        k(   47) = (   0.5833333  -0.4166667   0.7500000), wk =   0.0555556
        k(   48) = (   0.5000000  -0.3333333   0.6666667), wk =   0.0277778
        k(   49) = (  -0.1666667   0.5000000   0.0000000), wk =   0.0277778
        k(   50) = (  -0.2500000   0.5833333  -0.0833333), wk =   0.0555556
        k(   51) = (   0.6666667  -0.3333333   0.8333333), wk =   0.0555556
        k(   52) = (   0.5833333  -0.2500000   0.7500000), wk =   0.0555556
        k(   53) = (   0.5000000  -0.1666667   0.6666667), wk =   0.0555556
        k(   54) = (   0.4166667  -0.0833333   0.5833333), wk =   0.0555556
        k(   55) = (   0.3333333   0.0000000   0.5000000), wk =   0.0277778
        k(   56) = (  -0.1666667   0.6666667  -0.0000000), wk =   0.0277778
        k(   57) = (   0.7500000  -0.2500000   0.9166667), wk =   0.0555556
        k(   58) = (   0.6666667  -0.1666667   0.8333333), wk =   0.0555556
        k(   59) = (   0.5833333  -0.0833333   0.7500000), wk =   0.0555556
        k(   60) = (   0.5000000   0.0000000   0.6666667), wk =   0.0277778
        k(   61) = (   0.8333333  -0.1666667   1.0000000), wk =   0.0277778
        k(   62) = (   0.7500000  -0.0833333   0.9166667), wk =   0.0555556
        k(   63) = (   0.6666667   0.0000000   0.8333333), wk =   0.0277778
        k(   64) = (  -0.1666667  -1.0000000  -0.0000000), wk =   0.0138889
        k(   65) = (   0.6666667  -0.3333333   1.0000000), wk =   0.0277778
        k(   66) = (   0.5833333  -0.2500000   0.9166667), wk =   0.0555556
        k(   67) = (   0.5000000  -0.1666667   0.8333333), wk =   0.0277778
        k(   68) = (   0.6666667  -0.1666667   1.0000000), wk =   0.0277778
        k(   69) = (   0.5833333  -0.0833333   0.9166667), wk =   0.0555556
        k(   70) = (   0.5000000   0.0000000   0.8333333), wk =   0.0277778
        k(   71) = (  -0.3333333  -1.0000000   0.0000000), wk =   0.0138889
        k(   72) = (  -0.5000000  -1.0000000   0.0000000), wk =   0.0069444

     Dense  grid:    32311 G-vectors     FFT dimensions: (  45,  45,  45)

     Estimated max dynamical RAM per process >       6.64 MB

     Estimated total dynamical RAM >     106.30 MB

     The potential is recalculated from file :
     out/mp-682.save/charge-density

     Starting wfcs are random

     Band Structure Calculation
     Davidson diagonalization with overlap

     ethr =  5.00E-06,  avg # of iterations = 15.2

     total cpu time spent up to now is        5.7 secs

     End of band structure calculation

          k = 0.0000 0.0000 0.0000 (  4015 PWs)   bands (ev):

   -45.3664 -17.5374 -17.2652 -17.2652 -17.2652   1.6096   1.6096   1.6096
     8.1927  21.0533  21.0533  21.0533  23.8942  26.3228  26.3228  29.1716

          k =-0.0833 0.0833-0.0833 (  4005 PWs)   bands (ev):

   -45.3653 -17.6589 -17.2661 -17.2661 -17.1341   1.4652   1.5912   1.5912
     8.4493  20.0302  21.1675  21.1675  25.0537  26.0042  26.0042  29.1935

          k =-0.1667 0.1667-0.1667 (  4017 PWs)   bands (ev):

   -45.3624 -17.8385 -17.2685 -17.2685 -16.9284   1.1068   1.5411   1.5411
     9.1375  18.4977  21.4726  21.4726  25.4370  25.4370  26.4645  29.7625

          k =-0.2500 0.2500-0.2500 (  4020 PWs)   bands (ev):

   -45.3584 -17.9958 -17.2718 -17.2718 -16.7349   0.6788   1.4735   1.4735
    10.0912  17.1263  21.8500  21.8500  25.0283  25.0283  26.6767  30.9858

          k =-0.3333 0.3333-0.3333 (  4056 PWs)   bands (ev):

   -45.3545 -18.1149 -17.2752 -17.2752 -16.5790   0.2996   1.4068   1.4068
    11.1517  15.9594  22.1260  22.1260  24.9398  24.9398  26.4090  30.5427

          k =-0.4167 0.4167-0.4167 (  4047 PWs)   bands (ev):

   -45.3516 -18.1888 -17.2776 -17.2776 -16.4779   0.0445   1.3585   1.3585
    12.1567  14.9863  22.2289  22.2289  25.0858  25.0858  26.1851  29.7350

          k = 0.5000-0.5000 0.5000 (  4044 PWs)   bands (ev):

   -45.3505 -18.2138 -17.2785 -17.2785 -16.4428  -0.0450   1.3410   1.3410
    12.7026  14.4693  22.2442  22.2442  25.1844  25.1844  26.1116  29.4082

          k = 0.0000 0.1667 0.0000 (  3983 PWs)   bands (ev):

   -45.3649 -17.6788 -17.2691 -17.2691 -17.1063   1.4357   1.5783   1.5783
     8.5323  19.8859  21.1227  21.1227  25.3428  25.4599  26.5091  29.4928

          k =-0.0833 0.2500-0.0833 (  4012 PWs)   bands (ev):

   -45.3627 -17.8050 -17.2735 -17.2711 -16.9591   1.1701   1.5335   1.5363
     9.0706  18.7247  21.2792  21.3528  24.5151  26.4078  26.8758  29.6671

          k =-0.1667 0.3333-0.1667 (  4015 PWs)   bands (ev):

   -45.3591 -17.9453 -17.2779 -17.2731 -16.7882   0.7917   1.4688   1.4692
     9.9298  17.4454  21.5475  21.6808  23.9093  26.0909  27.4775  30.4237

          k =-0.2500 0.4167-0.2500 (  4016 PWs)   bands (ev):

   -45.3551 -18.0630 -17.2812 -17.2770 -16.6363   0.4229   1.3908   1.4032
    10.9552  16.3008  21.7935  21.8163  23.7874  25.8722  27.3588  30.9784

          k =-0.3333 0.5000-0.3333 (  4019 PWs)   bands (ev):

   -45.3519 -18.1441 -17.2826 -17.2817 -16.5262   0.1466   1.3231   1.3526
    11.9973  15.3071  21.6425  22.0192  24.0798  25.7489  27.1920  30.5379

          k = 0.5833-0.4167 0.5833 (  4041 PWs)   bands (ev):

   -45.3502 -18.1827 -17.2861 -17.2816 -16.4720   0.0117   1.2836   1.3304
    12.7943  14.5739  21.4575  22.1766  24.4604  25.5335  27.0859  30.2129

          k = 0.5000-0.3333 0.5000 (  4032 PWs)   bands (ev):

   -45.3506 -18.1765 -17.2887 -17.2785 -16.4807   0.0395   1.2822   1.3423
    12.5881  14.7696  21.3383  22.3413  24.8069  25.0672  27.0556  30.3515

          k = 0.4167-0.2500 0.4167 (  4029 PWs)   bands (ev):

   -45.3528 -18.1259 -17.2888 -17.2742 -16.5512   0.2252   1.3197   1.3854
    11.6558  15.6338  21.2830  22.4958  24.4522  25.0932  27.1539  30.9051

          k = 0.3333-0.1667 0.3333 (  4030 PWs)   bands (ev):

   -45.3564 -18.0341 -17.2859 -17.2698 -16.6748   0.5382   1.3872   1.4487
    10.6023  16.6748  21.2420  22.4014  24.1507  25.3523  27.3396  31.2337

          k = 0.2500-0.0833 0.2500 (  4023 PWs)   bands (ev):

   -45.3604 -17.9090 -17.2806 -17.2665 -16.8356   0.9180   1.4686   1.5158
     9.6161  17.8547  21.1738  21.9295  24.4920  25.6800  27.2754  30.1894

          k = 0.1667-0.0000 0.1667 (  4023 PWs)   bands (ev):

   -45.3636 -17.7677 -17.2733 -17.2651 -17.0076   1.2676   1.5442   1.5681
     8.8465  19.1056  21.1247  21.4498  25.1998  26.0316  26.2360  29.4897

          k = 0.0000 0.3333 0.0000 (  4032 PWs)   bands (ev):

   -45.3611 -17.8302 -17.2800 -17.2800 -16.9142   1.0479   1.4953   1.4953
     9.4282  18.2687  21.3028  21.3028  23.4119  27.0636  28.2719  29.6125

          k =-0.0833 0.4167-0.0833 (  4013 PWs)   bands (ev):

   -45.3582 -17.8995 -17.2863 -17.2846 -16.8220   0.7941   1.4291   1.4375
    10.1346  17.3927  21.4063  21.4639  22.5715  27.1769  29.2141  29.6299

          k =-0.1667 0.5000-0.1667 (  4038 PWs)   bands (ev):

   -45.3546 -17.9797 -17.2908 -17.2895 -16.7159   0.5165   1.3324   1.3758
    11.0700  16.4721  21.0360  21.6730  22.4970  27.0437  29.2054  29.8868

          k =-0.2500 0.5833-0.2500 (  4034 PWs)   bands (ev):

   -45.3513 -18.0477 -17.2974 -17.2922 -16.6218   0.2906   1.2269   1.3264
    12.1015  15.6110  20.4854  21.8700  22.7845  26.8448  29.2493  30.1484

          k = 0.6667-0.3333 0.6667 (  4018 PWs)   bands (ev):

   -45.3493 -18.0919 -17.3068 -17.2902 -16.5577   0.1600   1.1432   1.3018
    13.0484  14.8426  20.0877  22.0541  23.1269  26.4820  29.0369  31.0973

          k = 0.5833-0.2500 0.5833 (  4024 PWs)   bands (ev):

   -45.3491 -18.1074 -17.3141 -17.2852 -16.5351   0.1440   1.1069   1.3085
    13.2390  14.7064  19.8911  22.2702  23.5997  25.7877  28.8080  31.7774

          k = 0.5000-0.1667 0.5000 (  4017 PWs)   bands (ev):

   -45.3506 -18.0933 -17.3158 -17.2787 -16.5582   0.2411   1.1320   1.3449
    12.4104  15.4248  19.9278  22.5718  24.2215  24.7887  28.7036  31.4725

          k = 0.4167-0.0833 0.4167 (  4033 PWs)   bands (ev):

   -45.3536 -18.0513 -17.3101 -17.2724 -16.6244   0.4299   1.2173   1.4019
    11.3896  16.2412  20.2081  22.9686  23.7463  24.8677  28.6560  31.1494

          k = 0.3333 0.0000 0.3333 (  4023 PWs)   bands (ev):

   -45.3572 -17.9864 -17.2972 -17.2679 -16.7234   0.6726   1.3430   1.4646
    10.4107  17.0602  20.6682  22.6386  23.7220  25.3931  28.3076  30.6594

          k = 0.0000 0.5000 0.0000 (  4016 PWs)   bands (ev):

   -45.3559 -17.8764 -17.2949 -17.2949 -16.8297   0.6703   1.3874   1.3874
    10.6712  16.9336  21.2766  21.5300  21.5300  27.9682  28.8067  31.5977

          k =-0.0833 0.5833-0.0833 (  4036 PWs)   bands (ev):

   -45.3530 -17.8830 -17.3027 -17.3013 -16.8075   0.5061   1.3058   1.3326
    11.4702  16.3241  20.2067  21.6680  21.7708  28.2553  28.4785  31.8485

          k =-0.1667 0.6667-0.1667 (  4043 PWs)   bands (ev):

   -45.3501 -17.9109 -17.3160 -17.3039 -16.7575   0.3787   1.1708   1.2874
    12.4355  15.7238  19.3519  21.8198  21.9357  28.2053  28.7028  31.6083

          k = 0.7500-0.2500 0.7500 (  4046 PWs)   bands (ev):

   -45.3481 -17.9484 -17.3346 -17.3019 -16.6943   0.3220   1.0139   1.2635
    13.4315  15.1300  18.7600  21.9697  22.0537  27.8745  29.4608  31.1827

          k = 0.6667-0.1667 0.6667 (  4034 PWs)   bands (ev):

   -45.3475 -17.9874 -17.3485 -17.2958 -16.6372   0.3294   0.8955   1.2668
    13.9845  14.7969  18.4732  22.1425  22.3853  27.0928  30.2998  30.9646

          k = 0.5833-0.0833 0.5833 (  4036 PWs)   bands (ev):

   -45.3484 -18.0223 -17.3490 -17.2874 -16.6022   0.3548   0.8914   1.2969
    13.2964  15.3501  18.6045  22.3811  23.0686  25.8893  30.1639  31.2235

          k = 0.5000 0.0000 0.5000 (  4025 PWs)   bands (ev):

   -45.3507 -18.0459 -17.3343 -17.2788 -16.5977   0.3755   1.0233   1.3462
    12.3367  15.8383  19.2324  22.7154  23.9868  24.6170  29.6630  31.1091

          k = 0.0000 0.6667 0.0000 (  4056 PWs)   bands (ev):

   -45.3508 -17.7989 -17.3100 -17.3100 -16.8898   0.4239   1.2853   1.2853
    12.1210  15.9639  19.1903  21.7414  21.7414  27.6510  29.1700  33.6178

          k =-0.0833 0.7500-0.0833 (  4042 PWs)   bands (ev):

   -45.3486 -17.7540 -17.3256 -17.3145 -16.9208   0.3596   1.1984   1.2465
    12.9733  15.5927  18.2559  21.7684  21.8402  27.4560  29.5672  33.5275

          k = 0.8333-0.1667 0.8333 (  4042 PWs)   bands (ev):

   -45.3469 -17.7636 -17.3616 -17.3135 -16.8725   0.3677   1.0253   1.2258
    13.9335  15.2584  17.5422  21.6214  21.9391  28.0154  29.5353  32.6014

          k = 0.7500-0.0833 0.7500 (  4048 PWs)   bands (ev):

   -45.3463 -17.8287 -17.3846 -17.3075 -16.7779   0.4648   0.7966   1.2286
    14.6635  14.9867  17.1966  21.6229  22.0456  28.8354  29.0997  31.3938

          k = 0.6667-0.0000 0.6667 (  4017 PWs)   bands (ev):

   -45.3468 -17.9260 -17.3767 -17.2979 -16.6795   0.5397   0.6657   1.2544
    14.1385  15.2973  17.5648  22.1092  22.1868  27.3767  30.4147  31.1098

          k = 0.0000 0.8333 0.0000 (  4048 PWs)   bands (ev):

   -45.3471 -17.6148 -17.3211 -17.3211 -17.0747   0.3124   1.2142   1.2142
    13.6986  15.3782  17.2510  21.8894  21.8894  26.7163  30.4857  34.2013

          k = 0.9167-0.0833 0.9167 (  4045 PWs)   bands (ev):

   -45.3460 -17.5552 -17.3779 -17.3221 -17.0794   0.3151   1.1348   1.1987
    14.5604  15.2228  16.4435  21.7629  21.9389  26.8508  30.8877  33.0905

          k = 0.8333 0.0000 0.8333 (  4053 PWs)   bands (ev):

   -45.3458 -17.6553 -17.4111 -17.3171 -16.9391   0.3885   0.9598   1.2039
    15.0816  15.1448  16.2448  21.4970  21.9851  27.7736  30.8810  31.1626

          k = 0.0000-1.0000 0.0000 (  4040 PWs)   bands (ev):

   -45.3457 -17.4243 -17.3252 -17.3252 -17.2683   0.2850   1.1889   1.1889
    15.1265  15.1825  15.7094  21.9426  21.9426  26.3618  31.2138  34.2164

          k =-0.1667 0.3333 0.0000 (  4020 PWs)   bands (ev):

   -45.3600 -17.8908 -17.2846 -17.2717 -16.8475   0.9243   1.4536   1.4974
     9.6894  17.8545  21.1064  21.7805  23.6426  26.4275  28.0751  29.8392

          k =-0.2500 0.4167-0.0833 (  4028 PWs)   bands (ev):

   -45.3565 -17.9851 -17.2945 -17.2739 -16.7216   0.6219   1.3532   1.4367
    10.5801  16.8770  20.8849  22.2856  23.1204  26.1547  28.5528  30.2845

          k =-0.3333 0.5000-0.1667 (  4038 PWs)   bands (ev):

   -45.3529 -18.0636 -17.3005 -17.2786 -16.6129   0.3471   1.2594   1.3721
    11.6040  15.9451  20.6461  22.2285  23.4644  25.8247  28.5424  30.7410

          k = 0.5833-0.4167 0.7500 (  4027 PWs)   bands (ev):

   -45.3503 -18.1141 -17.3026 -17.2840 -16.5404   0.1595   1.1934   1.3238
    12.6074  15.0876  20.4688  22.0099  24.0357  25.5194  28.5348  31.2790

          k = 0.5000-0.3333 0.6667 (  4024 PWs)   bands (ev):

   -45.3493 -18.1315 -17.3026 -17.2866 -16.5151   0.0932   1.1697   1.3061
    13.1900  14.5719  20.4078  21.9249  24.2859  25.3755  28.5431  31.3582

          k =-0.1667 0.5000 0.0000 (  4018 PWs)   bands (ev):

   -45.3552 -17.9296 -17.3002 -17.2866 -16.7696   0.6034   1.3358   1.3879
    10.8811  16.7295  20.8035  21.8960  22.0240  27.3440  29.2311  30.4002

          k =-0.2500 0.5833-0.0833 (  4039 PWs)   bands (ev):

   -45.3520 -17.9678 -17.3115 -17.2918 -16.7059   0.4271   1.2155   1.3261
    11.8244  16.0523  20.0567  21.5579  22.6553  27.1104  29.3718  30.7228

          k = 0.6667-0.3333 0.8333 (  4039 PWs)   bands (ev):

   -45.3494 -18.0025 -17.3199 -17.2986 -16.6469   0.3072   1.0924   1.2776
    12.8359  15.3802  19.4849  21.3278  23.2279  26.7135  29.9574  30.6692

          k = 0.5833-0.2500 0.7500 (  4031 PWs)   bands (ev):

   -45.3481 -18.0270 -17.3281 -17.2996 -16.6063   0.2580   1.0047   1.2592
    13.6761  14.7677  19.1662  21.2684  23.7246  26.1758  30.4120  30.9923

          k = 0.5000-0.1667 0.6667 (  4039 PWs)   bands (ev):

   -45.3484 -18.0383 -17.3328 -17.2936 -16.5931   0.2749   0.9894   1.2753
    13.4023  15.0224  19.1267  21.4610  24.2254  25.4273  30.2557  31.1623

          k = 0.4167-0.0833 0.5833 (  4037 PWs)   bands (ev):

   -45.3503 -18.0352 -17.3286 -17.2850 -16.6110   0.3461   1.0615   1.3203
    12.4629  15.6867  19.4291  21.8637  24.1845  25.1199  30.0074  30.6668

          k = 0.3333 0.0000 0.5000 (  4033 PWs)   bands (ev):

   -45.3533 -18.0170 -17.3145 -17.2775 -16.6570   0.4645   1.1994   1.3805
    11.4670  16.2908  20.0662  22.3890  23.2461  25.7102  29.5911  30.3279

          k =-0.1667 0.6667-0.0000 (  4033 PWs)   bands (ev):

   -45.3504 -17.8563 -17.3159 -17.3083 -16.8181   0.4119   1.2243   1.2721
    12.2896  15.8797  19.2393  21.3892  22.2118  28.1017  28.6291  32.9365

          k = 0.7500-0.2500 0.9167 (  4035 PWs)   bands (ev):

   -45.3482 -17.8543 -17.3344 -17.3176 -16.7910   0.3752   1.0802   1.2218
    13.2478  15.4702  18.4508  21.0019  22.7208  28.0563  28.7820  32.3456

          k = 0.6667-0.1667 0.8333 (  4035 PWs)   bands (ev):

   -45.3469 -17.8788 -17.3582 -17.3162 -16.7373   0.4109   0.8963   1.2049
    14.1783  15.0353  17.9542  20.7465  23.1590  27.6671  29.3963  31.5475

          k = 0.5833-0.0833 0.7500 (  4040 PWs)   bands (ev):

   -45.3468 -17.9267 -17.3666 -17.3077 -16.6791   0.4700   0.7685   1.2210
    14.2226  15.1005  17.8876  20.8442  23.6338  26.6928  30.3923  31.0490

          k = 0.5000 0.0000 0.6667 (  4042 PWs)   bands (ev):

   -45.3481 -17.9848 -17.3543 -17.2959 -16.6338   0.4157   0.8578   1.2639
    13.3977  15.4734  18.4216  21.2849  24.2693  25.4309  30.6913  31.1203

          k = 0.8333-0.1667 1.0000 (  4045 PWs)   bands (ev):

   -45.3470 -17.6913 -17.3483 -17.3275 -16.9544   0.3458   1.1464   1.1804
    13.8292  15.3569  17.3905  21.2743  22.3360  27.3753  29.9301  32.6621

          k = 0.7500-0.0833 0.9167 (  4045 PWs)   bands (ev):

   -45.3460 -17.7039 -17.3904 -17.3297 -16.8929   0.4050   0.9804   1.1595
    14.7126  15.1711  16.8113  20.7462  22.7640  27.9878  29.6005  31.4207

          k = 0.6667 0.0000 0.8333 (  4040 PWs)   bands (ev):

   -45.3460 -17.8005 -17.3932 -17.3215 -16.7866   0.5329   0.7521   1.1781
    14.8389  15.1833  16.9394  20.5405  23.1475  28.2798  29.0953  31.0075

          k =-0.1667-1.0000-0.0000 (  4050 PWs)   bands (ev):

   -45.3457 -17.5446 -17.4176 -17.3318 -17.0389   0.3374   1.1187   1.1441
    15.1312  15.1808  15.9837  21.2292  22.3800  27.0937  31.1694  31.6059

          k = 0.6667-0.3333 1.0000 (  4043 PWs)   bands (ev):

   -45.3494 -17.9506 -17.3321 -17.3024 -16.6934   0.3912   1.0637   1.2583
    12.7486  15.6856  19.1263  20.9464  23.5233  26.5777  29.5446  31.8528

          k = 0.5833-0.2500 0.9167 (  4041 PWs)   bands (ev):

   -45.3475 -17.9343 -17.3460 -17.3166 -16.6828   0.4081   0.9187   1.2002
    13.7030  15.2882  18.4980  20.3997  24.3862  25.9677  29.9588  31.5858

          k = 0.5000-0.1667 0.8333 (  4052 PWs)   bands (ev):

   -45.3468 -17.9274 -17.3506 -17.3235 -16.6787   0.4302   0.8510   1.1779
    14.3481  14.8800  18.2821  20.1718  24.8716  25.5952  30.4013  30.9805

          k = 0.6667-0.1667 1.0000 (  4031 PWs)   bands (ev):

   -45.3466 -17.8129 -17.3520 -17.3450 -16.7913   0.4370   0.9690   1.1252
    14.1481  15.3038  17.7473  20.1413  23.6327  27.5755  28.9404  31.5341

          k = 0.5833-0.0833 0.9167 (  4051 PWs)   bands (ev):

   -45.3459 -17.8115 -17.3748 -17.3487 -16.7640   0.5566   0.7960   1.0897
    14.8770  15.0903  17.4400  19.5988  24.4483  26.8084  29.3344  30.8553

          k = 0.5000 0.0000 0.8333 (  4047 PWs)   bands (ev):

   -45.3463 -17.8604 -17.3690 -17.3376 -16.7242   0.5721   0.7427   1.1251
    14.5144  15.2401  17.7338  19.7052  25.1845  25.6708  29.8632  30.8252

          k =-0.3333-1.0000 0.0000 (  4054 PWs)   bands (ev):

   -45.3456 -17.7184 -17.3993 -17.3497 -16.8451   0.4858   0.9352   1.0556
    15.1439  15.1738  16.7127  19.8953  23.6627  28.4142  28.4422  30.9275

          k =-0.5000-1.0000 0.0000 (  4056 PWs)   bands (ev):

   -45.3456 -17.7810 -17.3744 -17.3744 -16.7724   0.7018   0.7018   1.0118
    15.1601  15.1601  17.3417  19.0351  25.7110  25.7110  29.2720  30.5807

     the Fermi energy is     4.3885 ev
     (compare with:     4.3913 eV, computed in scf)

     Writing all to output data dir out/mp-682.save/
 
     init_run     :      0.04s CPU      0.07s WALL (       1 calls)
     electrons    :      2.74s CPU      5.00s WALL (       1 calls)

     Called by init_run:
     wfcinit      :      0.00s CPU      0.00s WALL (       1 calls)
     potinit      :      0.01s CPU      0.04s WALL (       1 calls)
     hinit0       :      0.01s CPU      0.01s WALL (       1 calls)

     Called by electrons:
     c_bands      :      2.74s CPU      5.00s WALL (       1 calls)
     v_of_rho     :      0.01s CPU      0.01s WALL (       1 calls)

     Called by c_bands:
     init_us_2    :      0.00s CPU      0.00s WALL (      72 calls)
     init_us_2:cp :      0.00s CPU      0.00s WALL (      72 calls)
     cegterg      :      2.51s CPU      2.61s WALL (      72 calls)

     Called by *egterg:
     cdiaghg      :      0.31s CPU      0.32s WALL (    1163 calls)
     h_psi        :      2.25s CPU      2.34s WALL (    1235 calls)
     g_psi        :      0.01s CPU      0.01s WALL (    1091 calls)

     Called by h_psi:
     h_psi:calbec :      0.03s CPU      0.03s WALL (    1235 calls)
     vloc_psi     :      2.20s CPU      2.29s WALL (    1235 calls)
     add_vuspsi   :      0.01s CPU      0.01s WALL (    1235 calls)

     General routines
     calbec       :      0.03s CPU      0.03s WALL (    1235 calls)
     fft          :      0.01s CPU      0.01s WALL (      10 calls)
     fftw         :      2.10s CPU      2.19s WALL (   26854 calls)
 
     Parallel routines
 
     PWSCF        :      3.24s CPU      6.42s WALL

 
   This run was terminated on:   9:51:57  11Apr2024            

=------------------------------------------------------------------------------=
   JOB DONE.
=------------------------------------------------------------------------------=
