
     Program PWSCF v.7.1 starts on  3Jan2024 at 14:30:49 

     This program is part of the open-source Quantum ESPRESSO suite
     for quantum simulation of materials; please cite
         "P. Giannozzi et al., J. Phys.:Condens. Matter 21 395502 (2009);
         "P. Giannozzi et al., J. Phys.:Condens. Matter 29 465901 (2017);
         "P. Giannozzi et al., J. Chem. Phys. 152 154105 (2020);
          URL http://www.quantum-espresso.org", 
     in publications or presentations arising from this work. More details at
     http://www.quantum-espresso.org/quote

     Parallel version (MPI), running on     8 processors

     MPI processes distributed on     1 nodes
     123386 MiB available memory on the printing compute node when the environment starts
 
     Reading input from pw_mp-2472_nscf_k3000_E140.in
Warning: card &IONS ignored
Warning: card / ignored
Warning: card &CELL ignored
Warning: card / ignored

     Current dimensions of program PWSCF are:
     Max number of different atomic species (ntypx) = 10
     Max number of k-points (npk) =  40000
     Max angular momentum in pseudopotentials (lmaxx) =  4

     Atomic positions and unit cell read from directory:
     out/mp-2472.save/
     Atomic positions from file used, from input discarded
 
 
     R & G space division:  proc/nbgrp/npool/nimage =       8
     Subspace diagonalization in iterative solution of the eigenvalue problem:
     a serial algorithm will be used

 
     Parallelization info
     --------------------
     sticks:   dense  smooth     PW     G-vecs:    dense   smooth      PW
     Min         227     227     64                 6489     6489     997
     Max         231     231     65                 6490     6490    1000
     Sum        1831    1831    517                51913    51913    7991
 
     Using Slab Decomposition
 


     bravais-lattice index     =            2
     lattice parameter (alat)  =       9.7653  a.u.
     unit-cell volume          =     232.8067 (a.u.)^3
     number of atoms/cell      =            2
     number of atomic types    =            2
     number of electrons       =        16.00
     number of Kohn-Sham states=           16
     kinetic-energy cutoff     =     140.0000  Ry
     charge density cutoff     =     560.0000  Ry
     Exchange-correlation= PBE
                           (   1   4   3   4   0   0   0)

     celldm(1)=   9.765290  celldm(2)=   0.000000  celldm(3)=   0.000000
     celldm(4)=   0.000000  celldm(5)=   0.000000  celldm(6)=   0.000000

     crystal axes: (cart. coord. in units of alat)
               a(1) = (  -0.500000   0.000000   0.500000 )  
               a(2) = (   0.000000   0.500000   0.500000 )  
               a(3) = (  -0.500000   0.500000   0.000000 )  

     reciprocal axes: (cart. coord. in units 2 pi/alat)
               b(1) = ( -1.000000 -1.000000  1.000000 )  
               b(2) = (  1.000000  1.000000  1.000000 )  
               b(3) = ( -1.000000  1.000000 -1.000000 )  


     PseudoPot. # 1 for O  read from file:
     /usr/scratch4/magr4985/MG/devEb/pseudo/SG15/O.upf
     MD5 check sum: 9d2d0a8c71a1ad34a0c43284618bc51d
     Pseudo is Norm-conserving, Zval =  6.0
     Generated using ONCVPSP code by D. R. Hamann
     Using radial grid of  602 points,  4 beta functions with: 
                l(1) =   0
                l(2) =   0
                l(3) =   1
                l(4) =   1

     PseudoPot. # 2 for Sr read from file:
     /usr/scratch4/magr4985/MG/devEb/pseudo/SG15/Sr.upf
     MD5 check sum: 7138e3241744793a1037e143c224f249
     Pseudo is Norm-conserving, Zval = 10.0
     Generated using ONCVPSP code by D. R. Hamann
     Using radial grid of  602 points,  6 beta functions with: 
                l(1) =   0
                l(2) =   0
                l(3) =   1
                l(4) =   1
                l(5) =   2
                l(6) =   2

     atomic species   valence    mass     pseudopotential
        O              6.00    15.99940     O ( 1.00)
        Sr            10.00    87.62000     Sr( 1.00)

     48 Sym. Ops., with inversion, found



   Cartesian axes

     site n.     atom                  positions (alat units)
         1           Sr  tau(   1) = (  -0.5000000   0.5000000   0.5000000  )
         2           O   tau(   2) = (   0.0000000   0.0000000   0.0000000  )

     number of k points=    72  Gaussian smearing, width (Ry)=  0.0005
                       cart. coord. in units 2pi/alat
        k(    1) = (   0.0000000   0.0000000   0.0000000), wk =   0.0011574
        k(    2) = (  -0.0833333   0.0833333  -0.0833333), wk =   0.0092593
        k(    3) = (  -0.1666667   0.1666667  -0.1666667), wk =   0.0092593
        k(    4) = (  -0.2500000   0.2500000  -0.2500000), wk =   0.0092593
        k(    5) = (  -0.3333333   0.3333333  -0.3333333), wk =   0.0092593
        k(    6) = (  -0.4166667   0.4166667  -0.4166667), wk =   0.0092593
        k(    7) = (   0.5000000  -0.5000000   0.5000000), wk =   0.0046296
        k(    8) = (   0.0000000   0.1666667   0.0000000), wk =   0.0069444
        k(    9) = (  -0.0833333   0.2500000  -0.0833333), wk =   0.0277778
        k(   10) = (  -0.1666667   0.3333333  -0.1666667), wk =   0.0277778
        k(   11) = (  -0.2500000   0.4166667  -0.2500000), wk =   0.0277778
        k(   12) = (  -0.3333333   0.5000000  -0.3333333), wk =   0.0277778
        k(   13) = (   0.5833333  -0.4166667   0.5833333), wk =   0.0277778
        k(   14) = (   0.5000000  -0.3333333   0.5000000), wk =   0.0277778
        k(   15) = (   0.4166667  -0.2500000   0.4166667), wk =   0.0277778
        k(   16) = (   0.3333333  -0.1666667   0.3333333), wk =   0.0277778
        k(   17) = (   0.2500000  -0.0833333   0.2500000), wk =   0.0277778
        k(   18) = (   0.1666667  -0.0000000   0.1666667), wk =   0.0138889
        k(   19) = (   0.0000000   0.3333333   0.0000000), wk =   0.0069444
        k(   20) = (  -0.0833333   0.4166667  -0.0833333), wk =   0.0277778
        k(   21) = (  -0.1666667   0.5000000  -0.1666667), wk =   0.0277778
        k(   22) = (  -0.2500000   0.5833333  -0.2500000), wk =   0.0277778
        k(   23) = (   0.6666667  -0.3333333   0.6666667), wk =   0.0277778
        k(   24) = (   0.5833333  -0.2500000   0.5833333), wk =   0.0277778
        k(   25) = (   0.5000000  -0.1666667   0.5000000), wk =   0.0277778
        k(   26) = (   0.4166667  -0.0833333   0.4166667), wk =   0.0277778
        k(   27) = (   0.3333333   0.0000000   0.3333333), wk =   0.0138889
        k(   28) = (   0.0000000   0.5000000   0.0000000), wk =   0.0069444
        k(   29) = (  -0.0833333   0.5833333  -0.0833333), wk =   0.0277778
        k(   30) = (  -0.1666667   0.6666667  -0.1666667), wk =   0.0277778
        k(   31) = (   0.7500000  -0.2500000   0.7500000), wk =   0.0277778
        k(   32) = (   0.6666667  -0.1666667   0.6666667), wk =   0.0277778
        k(   33) = (   0.5833333  -0.0833333   0.5833333), wk =   0.0277778
        k(   34) = (   0.5000000   0.0000000   0.5000000), wk =   0.0138889
        k(   35) = (   0.0000000   0.6666667   0.0000000), wk =   0.0069444
        k(   36) = (  -0.0833333   0.7500000  -0.0833333), wk =   0.0277778
        k(   37) = (   0.8333333  -0.1666667   0.8333333), wk =   0.0277778
        k(   38) = (   0.7500000  -0.0833333   0.7500000), wk =   0.0277778
        k(   39) = (   0.6666667  -0.0000000   0.6666667), wk =   0.0138889
        k(   40) = (   0.0000000   0.8333333   0.0000000), wk =   0.0069444
        k(   41) = (   0.9166667  -0.0833333   0.9166667), wk =   0.0277778
        k(   42) = (   0.8333333   0.0000000   0.8333333), wk =   0.0138889
        k(   43) = (   0.0000000  -1.0000000   0.0000000), wk =   0.0034722
        k(   44) = (  -0.1666667   0.3333333   0.0000000), wk =   0.0277778
        k(   45) = (  -0.2500000   0.4166667  -0.0833333), wk =   0.0555556
        k(   46) = (  -0.3333333   0.5000000  -0.1666667), wk =   0.0555556
        k(   47) = (   0.5833333  -0.4166667   0.7500000), wk =   0.0555556
        k(   48) = (   0.5000000  -0.3333333   0.6666667), wk =   0.0277778
        k(   49) = (  -0.1666667   0.5000000   0.0000000), wk =   0.0277778
        k(   50) = (  -0.2500000   0.5833333  -0.0833333), wk =   0.0555556
        k(   51) = (   0.6666667  -0.3333333   0.8333333), wk =   0.0555556
        k(   52) = (   0.5833333  -0.2500000   0.7500000), wk =   0.0555556
        k(   53) = (   0.5000000  -0.1666667   0.6666667), wk =   0.0555556
        k(   54) = (   0.4166667  -0.0833333   0.5833333), wk =   0.0555556
        k(   55) = (   0.3333333   0.0000000   0.5000000), wk =   0.0277778
        k(   56) = (  -0.1666667   0.6666667   0.0000000), wk =   0.0277778
        k(   57) = (   0.7500000  -0.2500000   0.9166667), wk =   0.0555556
        k(   58) = (   0.6666667  -0.1666667   0.8333333), wk =   0.0555556
        k(   59) = (   0.5833333  -0.0833333   0.7500000), wk =   0.0555556
        k(   60) = (   0.5000000   0.0000000   0.6666667), wk =   0.0277778
        k(   61) = (   0.8333333  -0.1666667   1.0000000), wk =   0.0277778
        k(   62) = (   0.7500000  -0.0833333   0.9166667), wk =   0.0555556
        k(   63) = (   0.6666667  -0.0000000   0.8333333), wk =   0.0277778
        k(   64) = (  -0.1666667  -1.0000000  -0.0000000), wk =   0.0138889
        k(   65) = (   0.6666667  -0.3333333   1.0000000), wk =   0.0277778
        k(   66) = (   0.5833333  -0.2500000   0.9166667), wk =   0.0555556
        k(   67) = (   0.5000000  -0.1666667   0.8333333), wk =   0.0277778
        k(   68) = (   0.6666667  -0.1666667   1.0000000), wk =   0.0277778
        k(   69) = (   0.5833333  -0.0833333   0.9166667), wk =   0.0555556
        k(   70) = (   0.5000000   0.0000000   0.8333333), wk =   0.0277778
        k(   71) = (  -0.3333333  -1.0000000   0.0000000), wk =   0.0138889
        k(   72) = (  -0.5000000  -1.0000000   0.0000000), wk =   0.0069444

     Dense  grid:    51913 G-vectors     FFT dimensions: (  54,  54,  54)

     Estimated max dynamical RAM per process >      21.93 MB

     Estimated total dynamical RAM >     175.48 MB

     The potential is recalculated from file :
     out/mp-2472.save/charge-density

     Starting wfcs are random

     Band Structure Calculation
     Davidson diagonalization with overlap

     ethr =  5.00E-06,  avg # of iterations = 17.6

     total cpu time spent up to now is        8.5 secs

     End of band structure calculation

          k = 0.0000 0.0000 0.0000 (  6423 PWs)   bands (ev):

   -24.6558  -7.2979  -6.3025  -6.3025  -6.3025   7.7222   7.7222   7.7222
    11.6299  13.9604  13.9604  13.9604  16.0996  16.0996  20.2236  30.8486

          k =-0.0833 0.0833-0.0833 (  6489 PWs)   bands (ev):

   -24.6473  -7.4870  -6.3079  -6.3079  -6.1348   7.5071   7.6352   7.6352
    11.9554  13.8752  14.0943  14.0943  16.2788  16.2788  20.6830  30.1485

          k =-0.1667 0.1667-0.1667 (  6513 PWs)   bands (ev):

   -24.6240  -7.8539  -6.3225  -6.3225  -5.8265   7.0176   7.4108   7.4108
    12.7647  13.7474  14.4806  14.4806  16.7716  16.7716  21.8565  28.4748

          k =-0.2500 0.2500-0.2500 (  6492 PWs)   bands (ev):

   -24.5919  -8.2234  -6.3424  -6.3424  -5.5374   6.4770   7.1308   7.1308
    13.6801  13.8742  15.0671  15.0671  17.4761  17.4761  23.1678  26.9907

          k =-0.3333 0.3333-0.3333 (  6477 PWs)   bands (ev):

   -24.5594  -8.5259  -6.3620  -6.3620  -5.3154   6.0176   6.8750   6.8750
    13.8981  14.8821  15.7428  15.7428  18.2898  18.2898  23.3653  25.5188

          k =-0.4167 0.4167-0.4167 (  6493 PWs)   bands (ev):

   -24.5355  -8.7224  -6.3761  -6.3761  -5.1778   5.7143   6.7004   6.7004
    14.1322  15.7112  16.3106  16.3106  19.1065  19.1065  22.6745  23.8571

          k = 0.5000-0.5000 0.5000 (  6478 PWs)   bands (ev):

   -24.5267  -8.7905  -6.3813  -6.3813  -5.1313   5.6086   6.6388   6.6388
    14.2440  16.0365  16.5362  16.5362  19.5500  19.5500  22.3433  23.1055

          k = 0.0000 0.1667 0.0000 (  6487 PWs)   bands (ev):

   -24.6445  -7.5232  -6.3264  -6.3264  -6.0767   7.3257   7.6882   7.6882
    12.0211  13.6259  14.2521  14.2521  16.1932  16.4734  20.8260  30.3423

          k =-0.0833 0.2500-0.0833 (  6495 PWs)   bands (ev):

   -24.6262  -7.7828  -6.3523  -6.3390  -5.8597   6.9473   7.5329   7.5791
    12.5901  13.3935  14.5846  14.6519  16.4611  16.9481  21.7465  28.7146

          k =-0.1667 0.3333-0.1667 (  6512 PWs)   bands (ev):

   -24.5971  -8.1111  -6.3786  -6.3518  -5.6186   6.5377   7.2297   7.3526
    13.3590  13.4828  15.0485  15.2364  17.0381  17.5826  23.0469  26.8405

          k =-0.2500 0.4167-0.2500 (  6503 PWs)   bands (ev):

   -24.5648  -8.4104  -6.3983  -6.3747  -5.4144   6.1646   6.9336   7.0866
    13.5536  14.4371  15.6675  15.8903  17.8436  18.2695  23.5595  25.5699

          k =-0.3333 0.5000-0.3333 (  6508 PWs)   bands (ev):

   -24.5381  -8.6281  -6.4061  -6.4030  -5.2724   5.8800   6.7404   6.8533
    13.9000  15.1410  16.3894  16.4253  18.7640  18.9573  22.6650  23.9780

          k = 0.5833-0.4167 0.5833 (  6499 PWs)   bands (ev):

   -24.5242  -8.7339  -6.4290  -6.4002  -5.2023   5.7312   6.6847   6.7031
    14.1911  15.4434  16.6320  16.9063  19.4359  19.5379  21.9420  23.2130

          k = 0.5000-0.3333 0.5000 (  6502 PWs)   bands (ev):

   -24.5271  -8.7147  -6.4449  -6.3821  -5.2081   5.7486   6.6636   6.7656
    14.1768  15.4234  16.3962  16.8478  19.3036  19.4471  22.0259  23.5897

          k = 0.4167-0.2500 0.4167 (  6501 PWs)   bands (ev):

   -24.5460  -8.5734  -6.4453  -6.3565  -5.2920   5.9366   6.7421   6.9612
    13.9082  14.9923  15.8153  16.3697  18.5991  18.7098  22.9046  24.4057

          k = 0.3333-0.1667 0.3333 (  6483 PWs)   bands (ev):

   -24.5755  -8.3293  -6.4284  -6.3302  -5.4525   6.2726   6.9255   7.2275
    13.6468  14.1517  15.1370  15.7641  17.6682  18.0099  23.5918  25.2894

          k = 0.2500-0.0833 0.2500 (  6504 PWs)   bands (ev):

   -24.6077  -8.0183  -6.3959  -6.3102  -5.6789   6.7093   7.1785   7.4910
    13.1939  13.5664  14.5632  15.1178  16.9189  17.3003  22.6090  26.9279

          k = 0.1667-0.0000 0.1667 (  6483 PWs)   bands (ev):

   -24.6339  -7.7008  -6.3514  -6.3020  -5.9385   7.1701   7.4414   7.6488
    12.3974  13.6810  14.2005  14.5269  16.4336  16.6823  21.3710  28.9255

          k = 0.0000 0.3333 0.0000 (  6487 PWs)   bands (ev):

   -24.6137  -7.8502  -6.3912  -6.3912  -5.7936   6.6890   7.6221   7.6221
    12.7847  12.9015  15.0522  15.0522  16.4621  17.3405  22.3414  28.5682

          k =-0.0833 0.4167-0.0833 (  6493 PWs)   bands (ev):

   -24.5898  -8.0328  -6.4288  -6.4200  -5.6981   6.4616   7.4721   7.5232
    12.6606  13.3792  15.5630  15.6227  16.8081  17.8199  23.4459  26.7377

          k =-0.1667 0.5000-0.1667 (  6488 PWs)   bands (ev):

   -24.5607  -8.2541  -6.4550  -6.4502  -5.5941   6.3025   7.1745   7.3220
    12.7435  14.2058  16.0802  16.2372  17.4819  18.3240  23.9522  25.5005

          k =-0.2500 0.5833-0.2500 (  6510 PWs)   bands (ev):

   -24.5341  -8.4465  -6.4994  -6.4632  -5.4916   6.1870   6.9058   7.0865
    13.1248  14.8995  16.5840  16.7215  18.3761  18.9200  22.6109  24.2230

          k = 0.6667-0.3333 0.6667 (  6507 PWs)   bands (ev):

   -24.5174  -8.5682  -6.5568  -6.4512  -5.4046   6.0671   6.8127   6.8800
    13.6953  15.0589  16.9128  17.0209  19.1345  19.6585  21.5182  23.5058

          k = 0.5833-0.2500 0.5833 (  6500 PWs)   bands (ev):

   -24.5151  -8.5997  -6.6000  -6.4222  -5.3497   5.9755   6.7477   6.9023
    14.1696  14.8438  16.6866  17.0368  19.2892  20.1148  21.2464  23.8087

          k = 0.5000-0.1667 0.5000 (  6509 PWs)   bands (ev):

   -24.5280  -8.5399  -6.6091  -6.3837  -5.3430   5.9843   6.7144   7.0943
    13.9982  14.8123  16.1137  16.6270  18.9982  19.5439  21.8343  24.0668

          k = 0.4167-0.0833 0.4167 (  6502 PWs)   bands (ev):

   -24.5523  -8.4034  -6.5736  -6.3457  -5.3974   6.1199   6.7866   7.3102
    13.6474  14.4503  15.4492  16.2513  18.4216  18.5180  23.1059  24.4074

          k = 0.3333 0.0000 0.3333 (  6507 PWs)   bands (ev):

   -24.5815  -8.2172  -6.4957  -6.3188  -5.5156   6.3732   6.9522   7.4674
    13.4849  13.7985  14.8985  15.7995  17.4614  17.9226  23.6895  24.8944

          k = 0.0000 0.5000 0.0000 (  6454 PWs)   bands (ev):

   -24.5719  -8.0272  -6.4791  -6.4791  -5.7865   6.4182   7.5819   7.5819
    12.1538  13.6157  16.1793  16.1793  16.8665  18.0524  24.3533  26.6978

          k =-0.0833 0.5833-0.0833 (  6493 PWs)   bands (ev):

   -24.5481  -8.0970  -6.5265  -6.5163  -5.8462   6.4492   7.4567   7.5095
    11.9982  14.1970  16.6982  16.7512  17.2983  18.3076  24.4468  25.5195

          k =-0.1667 0.6667-0.1667 (  6514 PWs)   bands (ev):

   -24.5247  -8.2035  -6.6133  -6.5310  -5.8177   6.5274   7.1859   7.3378
    12.2182  14.9107  16.8399  17.1560  18.0595  18.9073  22.6426  24.4940

          k = 0.7500-0.2500 0.7500 (  6500 PWs)   bands (ev):

   -24.5081  -8.3058  -6.7264  -6.5196  -5.7106   6.5276   6.9982   7.1252
    12.7551  15.2719  16.7946  17.3493  18.7479  19.9203  21.2849  23.8830

          k = 0.6667-0.1667 0.6667 (  6505 PWs)   bands (ev):

   -24.5027  -8.3826  -6.8034  -6.4848  -5.5793   6.3402   6.9288   7.0648
    13.4897  14.9385  16.8488  17.1634  19.0621  20.5204  21.1115  23.8992

          k = 0.5833-0.0833 0.5833 (  6510 PWs)   bands (ev):

   -24.5102  -8.4272  -6.8018  -6.4354  -5.4665   6.1612   6.7915   7.2018
    14.1780  14.4004  16.6152  16.6319  19.0817  20.6002  21.2635  23.5810

          k = 0.5000 0.0000 0.5000 (  6515 PWs)   bands (ev):

   -24.5284  -8.4357  -6.7157  -6.3845  -5.4008   6.0811   6.7402   7.2995
    13.8843  14.5841  15.9734  16.3880  18.8955  19.6712  21.8159  24.1929

          k = 0.0000 0.6667 0.0000 (  6518 PWs)   bands (ev):

   -24.5304  -7.9838  -6.5660  -6.5660  -6.1171   6.6297   7.5871   7.5871
    11.5574  14.4685  17.3268  17.3901  17.3901  18.1608  24.1086  25.2753

          k =-0.0833 0.7500-0.0833 (  6512 PWs)   bands (ev):

   -24.5123  -7.9393  -6.6809  -6.5914  -6.2190   6.8255   7.4790   7.5337
    11.5210  14.9919  17.3434  17.5635  18.0078  18.6925  22.6214  24.5708

          k = 0.8333-0.1667 0.8333 (  6525 PWs)   bands (ev):

   -24.4987  -7.9679  -6.8950  -6.5864  -6.0811   6.9685   7.2270   7.3749
    11.8809  15.5641  16.7118  17.8307  18.4342  19.8810  21.2996  24.1388

          k = 0.7500-0.0833 0.7500 (  6530 PWs)   bands (ev):

   -24.4932  -8.0812  -7.0059  -6.5522  -5.8670   6.7681   7.1629   7.2004
    12.5533  15.5304  16.4653  17.7610  18.6915  20.4863  21.2662  23.7902

          k = 0.6667-0.0000 0.6667 (  6517 PWs)   bands (ev):

   -24.4975  -8.2570  -6.9577  -6.4972  -5.6495   6.4375   6.9528   7.2401
    13.4073  14.8824  16.6186  17.2366  18.9517  20.3260  22.5323  22.6081

          k = 0.0000 0.8333 0.0000 (  6530 PWs)   bands (ev):

   -24.5002  -7.7104  -6.6621  -6.6290  -6.6290   7.0605   7.6152   7.6152
    11.1816  15.1891  17.7124  17.9652  18.3698  18.3698  22.1159  24.3189

          k = 0.9167-0.0833 0.9167 (  6511 PWs)   bands (ev):

   -24.4917  -7.5889  -7.0410  -6.6345  -6.4545   7.2121   7.5002   7.5611
    11.2744  15.5331  17.2807  17.9305  18.5712  19.3602  21.3150  24.1116

          k = 0.8333 0.0000 0.8333 (  6525 PWs)   bands (ev):

   -24.4892  -7.7467  -7.1461  -6.6067  -6.1756   7.1816   7.2608   7.3936
    11.7656  15.9729  16.3796  18.2787  18.3218  20.5360  20.7345  23.9082

          k = 0.0000-1.0000 0.0000 (  6526 PWs)   bands (ev):

   -24.4892  -7.2653  -7.2170  -6.6519  -6.6519   7.2805   7.6301   7.6301
    11.0539  15.4649  17.8669  17.9307  18.7589  18.7589  21.2751  23.9802

          k =-0.1667 0.3333 0.0000 (  6505 PWs)   bands (ev):

   -24.6050  -7.9857  -6.4194  -6.3420  -5.6999   6.6215   7.3240   7.5706
    13.1349  13.1443  14.9003  15.2698  16.7610  17.4706  22.7428  26.9112

          k =-0.2500 0.4167-0.0833 (  6499 PWs)   bands (ev):

   -24.5759  -8.2288  -6.4795  -6.3551  -5.5393   6.3336   7.0506   7.4132
    13.1557  13.9119  15.3674  15.8997  17.3999  18.0702  23.8246  25.0422

          k =-0.3333 0.5000-0.1667 (  6506 PWs)   bands (ev):

   -24.5466  -8.4463  -6.5160  -6.3841  -5.4134   6.1104   6.8311   7.1721
    13.4348  14.6603  15.9748  16.3974  18.2957  18.7042  22.9957  24.5230

          k = 0.5833-0.4167 0.7500 (  6507 PWs)   bands (ev):

   -24.5249  -8.5940  -6.5289  -6.4170  -5.3356   5.9632   6.7330   6.9398
    13.8843  14.9907  16.5609  16.8297  19.0474  19.4783  21.8358  23.7462

          k = 0.5000-0.3333 0.6667 (  6506 PWs)   bands (ev):

   -24.5170  -8.6461  -6.5295  -6.4330  -5.3095   5.9105   6.7539   6.8016
    14.1816  14.9476  16.7793  17.1013  19.3771  19.8787  21.3830  23.5994

          k =-0.1667 0.5000 0.0000 (  6495 PWs)   bands (ev):

   -24.5659  -8.1428  -6.5113  -6.4311  -5.6811   6.3668   7.2952   7.5173
    12.4610  13.9168  16.0492  16.2260  17.2156  18.2102  24.4203  24.9337

          k =-0.2500 0.5833-0.0833 (  6503 PWs)   bands (ev):

   -24.5397  -8.2745  -6.5794  -6.4657  -5.6380   6.3412   7.0498   7.3809
    12.6041  14.5906  16.5066  16.6219  17.9493  18.7569  23.1138  24.7002

          k = 0.6667-0.3333 0.8333 (  6526 PWs)   bands (ev):

   -24.5182  -8.3876  -6.6315  -6.5100  -5.5727   6.3207   6.8881   7.1720
    13.0524  14.9936  16.6851  17.0593  18.6723  19.6129  21.7237  23.9489

          k = 0.5833-0.2500 0.7500 (  6518 PWs)   bands (ev):

   -24.5074  -8.4556  -6.6823  -6.5152  -5.5066   6.2391   6.9053   6.9797
    13.6961  14.7495  16.9151  17.1986  19.1539  20.3904  20.9453  23.8321

          k = 0.5000-0.1667 0.6667 (  6514 PWs)   bands (ev):

   -24.5101  -8.4676  -6.7089  -6.4787  -5.4604   6.1624   6.8163   7.0814
    14.0497  14.4676  16.8007  16.9387  19.1243  20.4617  21.0930  23.6910

          k = 0.4167-0.0833 0.5833 (  6507 PWs)   bands (ev):

   -24.5257  -8.4258  -6.6823  -6.4251  -5.4481   6.1471   6.7818   7.2601
    13.5554  14.7055  16.3906  16.4800  18.7878  19.6567  21.8224  24.1568

          k = 0.3333 0.0000 0.5000 (  6496 PWs)   bands (ev):

   -24.5498  -8.3409  -6.5986  -6.3781  -5.4758   6.2018   6.8687   7.3912
    13.2175  14.4096  15.8114  16.2965  18.1727  18.6630  23.1698  24.4619

          k =-0.1667 0.6667 0.0000 (  6500 PWs)   bands (ev):

   -24.5272  -8.0940  -6.6022  -6.5688  -5.9380   6.5858   7.3186   7.5112
    11.9014  14.7033  16.9126  17.3062  17.7092  18.6942  23.1270  24.8360

          k = 0.7500-0.2500 0.9167 (  6526 PWs)   bands (ev):

   -24.5088  -8.1222  -6.7267  -6.6236  -5.8886   6.7160   7.1106   7.3914
    12.1815  15.2156  16.6438  17.6855  18.2976  19.6162  21.7411  24.1124

          k = 0.6667-0.1667 0.8333 (  6525 PWs)   bands (ev):

   -24.4979  -8.1776  -6.8620  -6.6148  -5.7646   6.6430   7.0830   7.2008
    12.7729  15.1651  16.5380  17.7896  18.8150  20.6742  20.8211  23.7857

          k = 0.5833-0.0833 0.7500 (  6526 PWs)   bands (ev):

   -24.4975  -8.2614  -6.9026  -6.5653  -5.6319   6.4356   6.9928   7.1997
    13.5558  14.5511  16.6281  17.5221  19.0033  20.3926  21.7665  23.2078

          k = 0.5000 0.0000 0.6667 (  6532 PWs)   bands (ev):

   -24.5077  -8.3556  -6.8304  -6.4938  -5.5218   6.2609   6.8408   7.2699
    13.9460  14.3131  16.5238  16.9665  18.9847  20.5839  21.3650  23.4882

          k = 0.8333-0.1667 1.0000 (  6527 PWs)   bands (ev):

   -24.4991  -7.8372  -6.8500  -6.6680  -6.2291   7.0283   7.3588   7.5311
    11.5463  15.3999  16.9462  17.9705  18.3427  19.3820  21.6646  24.0690

          k = 0.7500-0.0833 0.9167 (  6529 PWs)   bands (ev):

   -24.4911  -7.8427  -7.0466  -6.6869  -6.0508   7.0419   7.2224   7.4109
    11.9592  15.7555  16.2472  18.2970  18.5475  20.4137  20.8748  23.6394

          k = 0.6667-0.0000 0.8333 (  6532 PWs)   bands (ev):

   -24.4905  -8.0175  -7.0489  -6.6443  -5.8362   6.7464   7.2118   7.2494
    12.6737  15.2161  16.3557  18.1279  18.7337  20.3769  21.6186  23.1958

          k =-0.1667-1.0000-0.0000 (  6516 PWs)   bands (ev):

   -24.4888  -7.5425  -7.1812  -6.6919  -6.3189   7.2705   7.3622   7.5430
    11.4254  15.7160  16.7964  18.0966  18.7628  19.7813  20.9881  23.7402

          k = 0.6667-0.3333 1.0000 (  6528 PWs)   bands (ev):

   -24.5187  -8.2788  -6.6999  -6.5390  -5.6425   6.4156   6.9277   7.3686
    12.7965  14.8797  16.4778  17.1086  18.4545  19.6832  21.8545  24.1920

          k = 0.5833-0.2500 0.9167 (  6526 PWs)   bands (ev):

   -24.5032  -8.2711  -6.7819  -6.6293  -5.6251   6.4421   6.9489   7.2600
    13.2855  14.6564  16.5131  17.5904  18.8691  20.5209  21.1886  23.5338

          k = 0.5000-0.1667 0.8333 (  6522 PWs)   bands (ev):

   -24.4975  -8.2658  -6.8098  -6.6701  -5.6155   6.4338   7.0673   7.1247
    13.9175  14.0414  16.6361  17.7675  19.0915  20.5335  21.2366  23.4880

          k = 0.6667-0.1667 1.0000 (  6533 PWs)   bands (ev):

   -24.4962  -8.0461  -6.8437  -6.7730  -5.8311   6.7602   7.1020   7.3785
    12.5008  15.1604  16.3019  18.2677  18.5767  20.4046  21.1648  23.4492

          k = 0.5833-0.0833 0.9167 (  6536 PWs)   bands (ev):

   -24.4904  -8.0336  -6.9508  -6.8044  -5.7424   6.6464   7.2106   7.2746
    13.1164  14.5183  16.3436  18.4384  18.9177  20.4003  21.5947  22.8899

          k = 0.5000 0.0000 0.8333 (  6535 PWs)   bands (ev):

   -24.4930  -8.1285  -6.9129  -6.7497  -5.6725   6.5354   7.1079   7.2774
    13.8036  13.9129  16.4357  18.1722  18.9646  20.3455  22.0797  22.6143

          k =-0.3333-1.0000 0.0000 (  6532 PWs)   bands (ev):

   -24.4880  -7.8488  -7.0819  -6.7996  -5.8971   6.8679   7.2583   7.3870
    12.3973  15.2602  16.1214  18.6565  18.7706  20.5300  21.0213  23.0885

          k =-0.5000-1.0000 0.0000 (  6588 PWs)   bands (ev):

   -24.4877  -7.9614  -6.9428  -6.9428  -5.7248   6.6366   7.2854   7.2854
    13.7380  13.7380  16.2861  18.7745  18.9836  20.3370  22.1494  22.1494

     the Fermi energy is    10.0501 ev
     (compare with:    10.0612 eV, computed in scf)

     Writing all to output data dir out/mp-2472.save/
 
     init_run     :      0.09s CPU      0.10s WALL (       1 calls)
     electrons    :      7.95s CPU      8.18s WALL (       1 calls)

     Called by init_run:
     wfcinit      :      0.00s CPU      0.00s WALL (       1 calls)
     potinit      :      0.02s CPU      0.02s WALL (       1 calls)
     hinit0       :      0.01s CPU      0.02s WALL (       1 calls)

     Called by electrons:
     c_bands      :      7.95s CPU      8.18s WALL (       1 calls)
     v_of_rho     :      0.02s CPU      0.02s WALL (       1 calls)

     Called by c_bands:
     init_us_2    :      0.02s CPU      0.02s WALL (      72 calls)
     init_us_2:cp :      0.02s CPU      0.02s WALL (      72 calls)
     cegterg      :      7.26s CPU      7.43s WALL (      85 calls)

     Called by *egterg:
     cdiaghg      :      0.45s CPU      0.47s WALL (    1336 calls)
     h_psi        :      6.54s CPU      6.69s WALL (    1421 calls)
     g_psi        :      0.06s CPU      0.06s WALL (    1264 calls)

     Called by h_psi:
     h_psi:calbec :      0.15s CPU      0.16s WALL (    1421 calls)
     vloc_psi     :      6.24s CPU      6.38s WALL (    1421 calls)
     add_vuspsi   :      0.11s CPU      0.12s WALL (    1421 calls)

     General routines
     calbec       :      0.15s CPU      0.15s WALL (    1421 calls)
     fft          :      0.01s CPU      0.02s WALL (      10 calls)
     fftw         :      5.54s CPU      5.67s WALL (   29886 calls)
 
     Parallel routines
 
     PWSCF        :      8.35s CPU      8.84s WALL

 
   This run was terminated on:  14:30:58   3Jan2024            

=------------------------------------------------------------------------------=
   JOB DONE.
=------------------------------------------------------------------------------=
