 running on    8 total cores
 distrk:  each k-point on    8 cores,    1 groups
 distr:  one band on    1 cores,    8 groups
 using from now: INCAR     
 vasp.5.4.4.18Apr17-6-g9f103f2a35 (build Aug 24 2017 11:22:49) complex          
  
 POSCAR found type information on POSCAR  H  Pb C  I  N 
 POSCAR found :  5 types and      48 ions
 scaLAPACK will be used

 ----------------------------------------------------------------------------- 
|                                                                             |
|           W    W    AA    RRRRR   N    N  II  N    N   GGGG   !!!           |
|           W    W   A  A   R    R  NN   N  II  NN   N  G    G  !!!           |
|           W    W  A    A  R    R  N N  N  II  N N  N  G       !!!           |
|           W WW W  AAAAAA  RRRRR   N  N N  II  N  N N  G  GGG   !            |
|           WW  WW  A    A  R   R   N   NN  II  N   NN  G    G                |
|           W    W  A    A  R    R  N    N  II  N    N   GGGG   !!!           |
|                                                                             |
|      For optimal performance we recommend to set                            |
|        NCORE= 4 - approx SQRT( number of cores)                             |
|      NCORE specifies how many cores store one orbital (NPAR=cpu/NCORE).     |
|      This setting can  greatly improve the performance of VASP for DFT.     |
|      The default,   NCORE=1            might be grossly inefficient         |
|      on modern multi-core architectures or massively parallel machines.     |
|      Do your own testing !!!!                                               |
|      Unfortunately you need to use the default for GW and RPA calculations. |
|      (for HF NCORE is supported but not extensively tested yet)             |
|                                                                             |
 ----------------------------------------------------------------------------- 


 ----------------------------------------------------------------------------- 
|                                                                             |
|  ADVICE TO THIS USER RUNNING 'VASP/VAMP'   (HEAR YOUR MASTER'S VOICE ...):  |
|                                                                             |
|      You have a (more or less) 'large supercell' and for larger cells       |
|      it might be more efficient to use real space projection opertators     |
|      So try LREAL= Auto  in the INCAR   file.                               |
|      Mind:          For very  accurate calculation you might also keep the  |
|      reciprocal projection scheme          (i.e. LREAL=.FALSE.)             |
|                                                                             |
 ----------------------------------------------------------------------------- 

 LDA part: xc-table for Pade appr. of Perdew
 POSCAR, INCAR and KPOINTS ok, starting setup
 FFT: planning ...
 WAVECAR not read
 entering main loop
       N       E                     dE             d eps       ncg     rms          rms(c)
DAV:   1     0.158175239096E+04    0.15818E+04   -0.81800E+04  9224   0.134E+03
DAV:   2     0.289703374691E+02   -0.15528E+04   -0.14865E+04 10968   0.314E+02
DAV:   3    -0.202364574690E+03   -0.23133E+03   -0.22974E+03 12032   0.146E+02
DAV:   4    -0.215439378199E+03   -0.13075E+02   -0.13040E+02 12656   0.412E+01
DAV:   5    -0.215881750492E+03   -0.44237E+00   -0.44178E+00 12736   0.675E+00    0.211E+01
DAV:   6    -0.205145615572E+03    0.10736E+02   -0.21377E+01 12232   0.101E+01    0.114E+01
DAV:   7    -0.203796319522E+03    0.13493E+01   -0.82551E+00 12896   0.661E+00    0.579E+00
DAV:   8    -0.203732389130E+03    0.63930E-01   -0.18988E+00 11080   0.339E+00    0.149E+00
DAV:   9    -0.203672432315E+03    0.59957E-01   -0.45817E-01 12608   0.170E+00    0.496E-01
DAV:  10    -0.203679792825E+03   -0.73605E-02   -0.82641E-02 11880   0.660E-01    0.334E-01
DAV:  11    -0.203679180903E+03    0.61192E-03   -0.67617E-03 11760   0.247E-01    0.161E-01
DAV:  12    -0.203679987312E+03   -0.80641E-03   -0.53855E-03 11496   0.159E-01    0.783E-02
DAV:  13    -0.203680021219E+03   -0.33908E-04   -0.64346E-04 10672   0.722E-02    0.445E-02
DAV:  14    -0.203680033864E+03   -0.12645E-04   -0.10034E-04 11984   0.234E-02    0.216E-02
DAV:  15    -0.203680043514E+03   -0.96504E-05   -0.56117E-05 10656   0.165E-02    0.593E-03
DAV:  16    -0.203680044868E+03   -0.13534E-05   -0.70178E-06 13176   0.661E-03    0.793E-03
DAV:  17    -0.203680044760E+03    0.10747E-06   -0.40328E-07 10264   0.176E-03    0.555E-03
DAV:  18    -0.203680044127E+03    0.63327E-06   -0.42695E-06 10304   0.431E-03    0.160E-03
DAV:  19    -0.203680044212E+03   -0.84705E-07   -0.46772E-07 11112   0.214E-03    0.171E-03
DAV:  20    -0.203680044231E+03   -0.19023E-07   -0.11689E-08  7160   0.355E-04    0.131E-03
DAV:  21    -0.203680044358E+03   -0.12687E-06   -0.16932E-07  8160   0.852E-04    0.834E-04
DAV:  22    -0.203680044336E+03    0.21884E-07   -0.13768E-08  6816   0.397E-04    0.606E-04
DAV:  23    -0.203680044315E+03    0.20385E-07   -0.92784E-09  5928   0.262E-04    0.235E-04
DAV:  24    -0.203680044303E+03    0.12664E-07   -0.38479E-09  5544   0.189E-04    0.248E-05
DAV:  25    -0.203680044298E+03    0.51623E-08   -0.24672E-09  5520   0.158E-04
   1 F= -.20368004E+03 E0= -.20368004E+03  d E =-.401900E-39
 Linear response reoptimize wavefunctions to high precision
DAV:   1    -0.203680044300E+03   -0.21782E-08   -0.74333E-10  5520   0.112E-04
DAV:   2    -0.203680044300E+03    0.53660E-10   -0.27628E-10  5520   0.477E-05
 Linear response to external field (no local field effect), progress :
  Direction:   1
       N       E                     dE             d eps       ncg     rms          rms(c)
RMM:   1    -0.121390129910E+02   -0.12139E+02   -0.49797E+01 12015   0.539E+00
RMM:   2    -0.127860652731E+02   -0.64705E+00   -0.39032E-01 10455   0.129E+00
RMM:   3    -0.127943574267E+02   -0.82922E-02   -0.22781E-02 11692   0.467E-01
RMM:   4    -0.127956344970E+02   -0.12771E-02   -0.23273E-03 10482   0.113E-01
RMM:   5    -0.127956846297E+02   -0.50133E-04   -0.37927E-04 11981   0.499E-02
RMM:   6    -0.127956981245E+02   -0.13495E-04   -0.90737E-05 11478   0.184E-02
RMM:   7    -0.127956995919E+02   -0.14674E-05   -0.25700E-05 11960   0.957E-03
RMM:   8    -0.127957004745E+02   -0.88253E-06   -0.11869E-05 11194   0.501E-03
RMM:   9    -0.127957006892E+02   -0.21480E-06   -0.57786E-06 10900   0.323E-03
RMM:  10    -0.127957007419E+02   -0.52617E-07   -0.34471E-06 10755   0.212E-03
RMM:  11    -0.127957007705E+02   -0.28603E-07   -0.26638E-06 10661   0.152E-03
RMM:  12    -0.127957007790E+02   -0.85504E-08   -0.23416E-06 10494   0.119E-03
RMM:  13    -0.127957007839E+02   -0.49154E-08   -0.22412E-06 10517   0.991E-04
RMM:  14    -0.127957007843E+02   -0.38427E-09   -0.21839E-06 10585   0.882E-04
RMM:  15    -0.127957007860E+02   -0.16827E-08   -0.21798E-06 10502   0.813E-04
RMM:  16    -0.127957007853E+02    0.66240E-09   -0.21627E-06 10598   0.780E-04
RMM:  17    -0.127957007861E+02   -0.74421E-09   -0.21686E-06 10525   0.758E-04
 change of polarisation eV/A/(eV/A) component  1 :    25.591     0.000    -0.000
 dielectric tensor                  component  1 :     5.513     0.000    -0.000
 Linear response to external field (no local field effect), progress :
  Direction:   2
       N       E                     dE             d eps       ncg     rms          rms(c)
RMM:   1    -0.122356846518E+02   -0.12236E+02   -0.50508E+01 11756   0.529E+00
RMM:   2    -0.129247330080E+02   -0.68905E+00   -0.37218E-01 10385   0.126E+00
RMM:   3    -0.129341035132E+02   -0.93705E-02   -0.23642E-02 11822   0.465E-01
RMM:   4    -0.129354481484E+02   -0.13446E-02   -0.25632E-03 10913   0.117E-01
RMM:   5    -0.129355181818E+02   -0.70033E-04   -0.45511E-04 12107   0.492E-02
RMM:   6    -0.129355307235E+02   -0.12542E-04   -0.88658E-05 11409   0.188E-02
RMM:   7    -0.129355320574E+02   -0.13338E-05   -0.22894E-05 12049   0.951E-03
RMM:   8    -0.129355331081E+02   -0.10508E-05   -0.10733E-05 11209   0.494E-03
RMM:   9    -0.129355332317E+02   -0.12356E-06   -0.43088E-06 10909   0.309E-03
RMM:  10    -0.129355333320E+02   -0.10032E-06   -0.29118E-06 10796   0.193E-03
RMM:  11    -0.129355333495E+02   -0.17539E-07   -0.22048E-06 10583   0.142E-03
RMM:  12    -0.129355333579E+02   -0.83571E-08   -0.19997E-06 10602   0.108E-03
RMM:  13    -0.129355333615E+02   -0.36427E-08   -0.19255E-06 10636   0.927E-04
RMM:  14    -0.129355333613E+02    0.21561E-09   -0.18835E-06 10596   0.824E-04
RMM:  15    -0.129355333625E+02   -0.12138E-08   -0.18829E-06 10639   0.777E-04
RMM:  16    -0.129355333626E+02   -0.85786E-10   -0.18769E-06 10692   0.748E-04
RMM:  17    -0.129355333623E+02    0.28923E-09   -0.18717E-06 10609   0.731E-04
 change of polarisation eV/A/(eV/A) component  2 :     0.000    25.871     0.000
 dielectric tensor                  component  2 :     0.000     5.562     0.000
 Linear response to external field (no local field effect), progress :
  Direction:   3
       N       E                     dE             d eps       ncg     rms          rms(c)
RMM:   1    -0.130101072299E+02   -0.13010E+02   -0.56268E+01 12036   0.530E+00
RMM:   2    -0.136552579938E+02   -0.64515E+00   -0.39260E-01 10289   0.129E+00
RMM:   3    -0.136641079985E+02   -0.88500E-02   -0.22420E-02 11617   0.461E-01
RMM:   4    -0.136656511769E+02   -0.15432E-02   -0.24609E-03 10602   0.113E-01
RMM:   5    -0.136657070115E+02   -0.55835E-04   -0.41757E-04 12006   0.497E-02
RMM:   6    -0.136657213305E+02   -0.14319E-04   -0.10110E-04 11431   0.186E-02
RMM:   7    -0.136657229971E+02   -0.16666E-05   -0.27963E-05 11836   0.967E-03
RMM:   8    -0.136657240959E+02   -0.10988E-05   -0.12919E-05 11156   0.518E-03
RMM:   9    -0.136657243686E+02   -0.27272E-06   -0.60874E-06 10848   0.330E-03
RMM:  10    -0.136657244217E+02   -0.53051E-07   -0.33111E-06 10721   0.211E-03
RMM:  11    -0.136657244553E+02   -0.33613E-07   -0.23886E-06 10671   0.153E-03
RMM:  12    -0.136657244653E+02   -0.10010E-07   -0.20232E-06 10509   0.117E-03
RMM:  13    -0.136657244713E+02   -0.60136E-08   -0.19053E-06 10562   0.975E-04
RMM:  14    -0.136657244715E+02   -0.20747E-09   -0.18354E-06 10481   0.854E-04
RMM:  15    -0.136657244727E+02   -0.11803E-08   -0.18240E-06 10521   0.785E-04
RMM:  16    -0.136657244738E+02   -0.10905E-08   -0.18233E-06 10571   0.746E-04
RMM:  17    -0.136657244724E+02    0.13554E-08   -0.18038E-06 10549   0.721E-04
 change of polarisation eV/A/(eV/A) component  3 :     0.000    -0.000    27.331
 dielectric tensor                  component  3 :     0.000    -0.000     5.820
 Linear response to external field, progress :
  Direction:   1
       N       E                     dE             d eps       ncg     rms          rms(c)
RMM:   1    -0.121390129910E+02   -0.12139E+02   -0.49797E+01 12015   0.539E+00
RMM:   2    -0.127860652731E+02   -0.64705E+00   -0.39032E-01 10455   0.129E+00    0.678E+00
RMM:   3    -0.118782751564E+02    0.90779E+00   -0.11870E+00 13993   0.201E+00    0.345E+00
RMM:   4    -0.120271447218E+02   -0.14887E+00   -0.13484E+00 15912   0.198E+00    0.804E-01
RMM:   5    -0.122516327250E+02   -0.22449E+00   -0.50265E-02 16959   0.676E-01    0.171E-01
RMM:   6    -0.122798454268E+02   -0.28213E-01   -0.82041E-03 16849   0.183E-01    0.116E-01
RMM:   7    -0.122870773286E+02   -0.72319E-02    0.33198E-02 17231   0.811E-02    0.487E-02
RMM:   8    -0.122937865943E+02   -0.67093E-02    0.15073E-02 16588   0.379E-02    0.134E-02
RMM:   9    -0.122920375018E+02    0.17491E-02    0.29580E-02 18588   0.163E-02    0.798E-03
RMM:  10    -0.122925073711E+02   -0.46987E-03    0.28691E-02 16399   0.950E-03    0.317E-03
RMM:  11    -0.122923938625E+02    0.11351E-03    0.28628E-02 19495   0.521E-03    0.843E-04
RMM:  12    -0.122928655900E+02   -0.47173E-03    0.24043E-02 18564   0.380E-03    0.362E-04
RMM:  13    -0.122919161127E+02    0.94948E-03    0.33589E-02 19486   0.314E-03    0.229E-04
RMM:  14    -0.122928498109E+02   -0.93370E-03    0.24236E-02 20394   0.290E-03    0.702E-05
RMM:  15    -0.122918133379E+02    0.10365E-02    0.34593E-02 21147   0.273E-03    0.478E-05
RMM:  16    -0.122928298170E+02   -0.10165E-02    0.24422E-02 20805   0.266E-03    0.284E-05
RMM:  17    -0.122917677551E+02    0.10621E-02    0.35038E-02 20923   0.263E-03    0.179E-05
RMM:  18    -0.122927904504E+02   -0.10227E-02    0.24813E-02 20623   0.261E-03    0.177E-05
RMM:  19    -0.122917515446E+02    0.10389E-02    0.35204E-02 20651   0.260E-03    0.140E-05
RMM:  20    -0.122927739044E+02   -0.10224E-02    0.24980E-02 20652   0.260E-03    0.146E-05
RMM:  21    -0.122917385610E+02    0.10353E-02    0.35334E-02 20745   0.259E-03    0.124E-05
RMM:  22    -0.122927463512E+02   -0.10078E-02    0.25256E-02 20641   0.259E-03    0.142E-05
RMM:  23    -0.122917356670E+02    0.10107E-02    0.35363E-02 20785   0.260E-03    0.124E-05
RMM:  24    -0.122927223001E+02   -0.98663E-03    0.25496E-02 20652   0.259E-03    0.142E-05
RMM:  25    -0.122917444627E+02    0.97784E-03    0.35274E-02 20643   0.259E-03    0.128E-05
RMM:  26    -0.122926988832E+02   -0.95442E-03    0.25730E-02 20663   0.260E-03    0.144E-05
RMM:  27    -0.122917491224E+02    0.94976E-03    0.35228E-02 20742   0.259E-03    0.131E-05
RMM:  28    -0.122926745046E+02   -0.92538E-03    0.25976E-02 20596   0.259E-03    0.145E-05
 change of polarisation eV/A/(eV/A) component  1 :    23.157     0.000     0.000
 dielectric tensor                  component  1 :     5.084     0.000     0.000
 Linear response to external field, progress :
  Direction:   2
       N       E                     dE             d eps       ncg     rms          rms(c)
RMM:   1    -0.122356846518E+02   -0.12236E+02   -0.50508E+01 11756   0.529E+00
RMM:   2    -0.129247330080E+02   -0.68905E+00   -0.37218E-01 10385   0.126E+00    0.677E+00
RMM:   3    -0.119992459521E+02    0.92549E+00   -0.11780E+00 13915   0.194E+00    0.343E+00
RMM:   4    -0.121144408944E+02   -0.11519E+00   -0.13567E+00 15919   0.191E+00    0.820E-01
RMM:   5    -0.123588805760E+02   -0.24444E+00   -0.19198E-01 16967   0.686E-01    0.185E-01
RMM:   6    -0.124095301465E+02   -0.50650E-01   -0.48175E-01 16850   0.202E-01    0.122E-01
RMM:   7    -0.124220555945E+02   -0.12525E-01   -0.46321E-01 17599   0.889E-02    0.594E-02
RMM:   8    -0.124314021038E+02   -0.93465E-02   -0.50175E-01 16610   0.465E-02    0.169E-02
RMM:   9    -0.124288456972E+02    0.25564E-02   -0.47902E-01 17880   0.247E-02    0.106E-02
RMM:  10    -0.124354543521E+02   -0.66087E-02   -0.55183E-01 17535   0.170E-02    0.350E-03
RMM:  11    -0.124285302043E+02    0.69241E-02   -0.48361E-01 19234   0.109E-02    0.159E-03
RMM:  12    -0.124311802389E+02   -0.26500E-02   -0.51091E-01 17803   0.907E-03    0.761E-04
RMM:  13    -0.124230175405E+02    0.81627E-02   -0.43029E-01 19376   0.825E-03    0.493E-04
RMM:  14    -0.124270006588E+02   -0.39831E-02   -0.47030E-01 20167   0.779E-03    0.135E-04
RMM:  15    -0.124231855529E+02    0.38151E-02   -0.43214E-01 20974   0.760E-03    0.926E-05
RMM:  16    -0.124283496093E+02   -0.51641E-02   -0.48381E-01 20767   0.753E-03    0.435E-05
RMM:  17    -0.124231459529E+02    0.52037E-02   -0.43178E-01 21145   0.749E-03    0.390E-05
RMM:  18    -0.124278512619E+02   -0.47053E-02   -0.47883E-01 20751   0.747E-03    0.282E-05
RMM:  19    -0.124238833918E+02    0.39679E-02   -0.43915E-01 20804   0.747E-03    0.314E-05
RMM:  20    -0.124274831192E+02   -0.35997E-02   -0.47514E-01 20821   0.747E-03    0.259E-05
RMM:  21    -0.124240906724E+02    0.33924E-02   -0.44121E-01 20777   0.746E-03    0.277E-05
RMM:  22    -0.124272566301E+02   -0.31660E-02   -0.47287E-01 20666   0.746E-03    0.248E-05
RMM:  23    -0.124243136627E+02    0.29430E-02   -0.44344E-01 20841   0.746E-03    0.248E-05
RMM:  24    -0.124269528500E+02   -0.26392E-02   -0.46983E-01 20710   0.746E-03    0.260E-05
 change of polarisation eV/A/(eV/A) component  2 :     0.000    23.414     0.000
 dielectric tensor                  component  2 :     0.000     5.129     0.000
 Linear response to external field, progress :
  Direction:   3
       N       E                     dE             d eps       ncg     rms          rms(c)
RMM:   1    -0.130101072299E+02   -0.13010E+02   -0.56268E+01 12036   0.530E+00
RMM:   2    -0.136552579938E+02   -0.64515E+00   -0.39260E-01 10289   0.129E+00    0.686E+00
RMM:   3    -0.128496784917E+02    0.80558E+00   -0.11310E+00 13584   0.196E+00    0.353E+00
RMM:   4    -0.130670625474E+02   -0.21738E+00   -0.13186E+00 15497   0.196E+00    0.765E-01
RMM:   5    -0.133182821538E+02   -0.25122E+00   -0.40203E-02 15337   0.624E-01    0.132E-01
RMM:   6    -0.133354083670E+02   -0.17126E-01   -0.38773E-03 16468   0.152E-01    0.998E-02
RMM:   7    -0.133446640371E+02   -0.92557E-02   -0.35142E-04 16566   0.610E-02    0.424E-02
RMM:   8    -0.133514301870E+02   -0.67661E-02    0.22260E-05 15858   0.319E-02    0.626E-03
RMM:   9    -0.133516972319E+02   -0.26704E-03    0.47742E-04 17977   0.121E-02    0.312E-03
RMM:  10    -0.133520820484E+02   -0.38482E-03    0.32058E-04 16575   0.617E-03    0.203E-03
RMM:  11    -0.133520378037E+02    0.44245E-04    0.28482E-04 18348   0.307E-03    0.338E-04
RMM:  12    -0.133520472634E+02   -0.94597E-05    0.38599E-04 18603   0.204E-03    0.165E-04
RMM:  13    -0.133520474337E+02   -0.17029E-06    0.23610E-04 19560   0.162E-03    0.597E-05
RMM:  14    -0.133520456247E+02    0.18090E-05    0.24609E-04 19819   0.146E-03    0.326E-05
RMM:  15    -0.133520433140E+02    0.23107E-05    0.25418E-04 19577   0.138E-03    0.199E-05
RMM:  16    -0.133520438861E+02   -0.57209E-06    0.24705E-04 19338   0.134E-03    0.124E-05
RMM:  17    -0.133520422918E+02    0.15943E-05    0.26694E-04 19243   0.133E-03    0.524E-06
 change of polarisation eV/A/(eV/A) component  3 :     0.000    -0.000    25.172
 dielectric tensor                  component  3 :     0.000    -0.000     5.439
 Linear response DOF=         144
 Linear response progress:
  Degree of freedom:   1/144
       N       E                     dE             d eps       ncg     rms          rms(c)
RMM:   1    -0.155403109238E-01   -0.15540E-01    0.34391E-03 21496   0.247E-01
RMM:   2    -0.164903635880E-01   -0.95005E-03   -0.73835E-04 16263   0.600E-02    0.106E-01
RMM:   3    -0.162234270809E-01    0.26694E-03    0.34978E-05 17294   0.198E-02    0.624E-02
RMM:   4    -0.165084045250E-01   -0.28498E-03    0.13084E-04 15658   0.165E-02    0.122E-02
RMM:   5    -0.167728349502E-01   -0.26443E-03    0.27005E-04 17333   0.664E-03    0.272E-03
RMM:   6    -0.167617361048E-01    0.11099E-04    0.33750E-04 17382   0.240E-03    0.130E-03
RMM:   7    -0.167943080521E-01   -0.32572E-04    0.24585E-04 16503   0.154E-03    0.604E-04
RMM:   8    -0.168319990540E-01   -0.37691E-04    0.19586E-04 18999   0.933E-04    0.402E-04
RMM:   9    -0.168254768114E-01    0.65222E-05    0.29993E-04 17727   0.754E-04    0.978E-05
RMM:  10    -0.168238451464E-01    0.16317E-05    0.29854E-04 20690   0.533E-04    0.681E-05
RMM:  11    -0.168203967793E-01    0.34484E-05    0.35149E-04 19062   0.466E-04    0.227E-05
RMM:  12    -0.168209590717E-01   -0.56229E-06    0.34651E-04 22619   0.427E-04    0.121E-05
RMM:  13    -0.168220438752E-01   -0.10848E-05    0.33678E-04 20790   0.416E-04    0.368E-06
RMM:  14    -0.168227795473E-01   -0.73567E-06    0.32843E-04 23637   0.408E-04    0.283E-06
 force on displaced ion       1 direction 1 :  -7.425  -4.162   6.667
 Born effective charge ion    1 direction 1 :   0.453   0.146  -0.322
 Linear response progress:
  Degree of freedom:   2/144
       N       E                     dE             d eps       ncg     rms          rms(c)
RMM:   1    -0.175451037686E-01   -0.17545E-01    0.26005E-03 21946   0.258E-01
RMM:   2    -0.170096730279E-01    0.53543E-03   -0.67548E-04 15798   0.683E-02    0.132E-01
RMM:   3    -0.160680043232E-01    0.94167E-03   -0.32489E-04 17506   0.299E-02    0.715E-02
RMM:   4    -0.160458276668E-01    0.22177E-04   -0.21931E-05 16516   0.167E-02    0.239E-02
RMM:   5    -0.162776506456E-01   -0.23182E-03    0.14350E-04 16245   0.785E-03    0.361E-03
RMM:   6    -0.162496795856E-01    0.27971E-04    0.39926E-04 17764   0.275E-03    0.162E-03
RMM:   7    -0.162560718354E-01   -0.63922E-05    0.54269E-04 16373   0.163E-03    0.751E-04
RMM:   8    -0.162755650893E-01   -0.19493E-04    0.54355E-04 18805   0.911E-04    0.472E-04
RMM:   9    -0.162645893695E-01    0.10976E-04    0.66395E-04 16600   0.591E-04    0.129E-04
RMM:  10    -0.162702037341E-01   -0.56144E-05    0.59907E-04 20667   0.365E-04    0.795E-05
RMM:  11    -0.162670508608E-01    0.31529E-05    0.65220E-04 18000   0.282E-04    0.218E-05
RMM:  12    -0.162690532911E-01   -0.20024E-05    0.63295E-04 22074   0.233E-04    0.160E-05
RMM:  13    -0.162710221351E-01   -0.19688E-05    0.61467E-04 21347   0.219E-04    0.596E-06
RMM:  14    -0.162704680569E-01    0.55408E-06    0.62154E-04 23086   0.210E-04    0.444E-06
RMM:  15    -0.162713151665E-01   -0.84711E-06    0.61319E-04 23008   0.206E-04    0.256E-06
 force on displaced ion       1 direction 2 :  -4.162 -13.369  12.481
 Born effective charge ion    1 direction 2 :   0.162   0.275  -0.191
 Linear response progress:
  Degree of freedom:   3/144
       N       E                     dE             d eps       ncg     rms          rms(c)
RMM:   1    -0.222749285010E-01   -0.22275E-01    0.14261E-02 22779   0.355E-01
RMM:   2    -0.525395321732E-02    0.17021E-01   -0.10123E-02 15768   0.100E-01    0.167E-01
RMM:   3    -0.852306596682E-02   -0.32691E-02   -0.45217E-03 17458   0.429E-02    0.856E-02
RMM:   4    -0.870917862437E-02   -0.18611E-03   -0.40198E-03 16836   0.221E-02    0.327E-02
RMM:   5    -0.717905623523E-02    0.15301E-02   -0.27192E-03 16431   0.115E-02    0.575E-03
RMM:   6    -0.750323291351E-02   -0.32418E-03   -0.52617E-03 17985   0.461E-03    0.239E-03
RMM:   7    -0.724638942890E-02    0.25684E-03   -0.54596E-03 16432   0.296E-03    0.163E-03
RMM:   8    -0.715870261876E-02    0.87687E-04   -0.58005E-03 19888   0.179E-03    0.665E-04
RMM:   9    -0.714734936235E-02    0.11353E-04   -0.66047E-03 16488   0.137E-03    0.194E-04
RMM:  10    -0.718001597115E-02   -0.32667E-04   -0.70195E-03 20577   0.103E-03    0.123E-04
RMM:  11    -0.718024017932E-02   -0.22421E-06   -0.70957E-03 18565   0.939E-04    0.311E-05
RMM:  12    -0.719396568156E-02   -0.13726E-04   -0.72269E-03 22105   0.881E-04    0.268E-05
RMM:  13    -0.721100811694E-02   -0.17042E-04   -0.73969E-03 21807   0.855E-04    0.139E-05
 force on displaced ion       1 direction 3 :   6.667  12.483 -24.677
 Born effective charge ion    1 direction 3 :  -0.445  -0.153   0.768
 Linear response progress:
  Degree of freedom:   4/144
       N       E                     dE             d eps       ncg     rms          rms(c)
RMM:   1    -0.155507973510E-01   -0.15551E-01    0.33761E-03 21473   0.247E-01
RMM:   2    -0.121084126085E-01    0.34424E-02   -0.17451E-03 16262   0.600E-02    0.106E-01
RMM:   3    -0.124361566713E-01   -0.32774E-03   -0.66636E-04 17277   0.199E-02    0.624E-02
RMM:   4    -0.123339689634E-01    0.10219E-03   -0.84935E-04 15690   0.165E-02    0.122E-02
RMM:   5    -0.120147391310E-01    0.31923E-03   -0.15248E-04 17317   0.669E-03    0.272E-03
RMM:   6    -0.120216810453E-01   -0.69419E-05   -0.20426E-04 17418   0.246E-03    0.130E-03
RMM:   7    -0.119838402215E-01    0.37841E-04   -0.20084E-04 16535   0.160E-03    0.604E-04
RMM:   8    -0.119391667857E-01    0.44673E-04   -0.13656E-04 19045   0.993E-04    0.401E-04
RMM:   9    -0.119432069239E-01   -0.40401E-05   -0.25815E-04 17668   0.818E-04    0.963E-05
RMM:  10    -0.119476575876E-01   -0.44507E-05   -0.27594E-04 20720   0.597E-04    0.677E-05
RMM:  11    -0.119517948523E-01   -0.41373E-05   -0.33661E-04 19060   0.532E-04    0.218E-05
RMM:  12    -0.119610216048E-01   -0.92268E-05   -0.42945E-04 22543   0.494E-04    0.110E-05
RMM:  13    -0.119578246352E-01    0.31970E-05   -0.39697E-04 20955   0.484E-04    0.341E-06
 force on displaced ion       2 direction 1 :  -7.425  -4.162   6.667
 Born effective charge ion    2 direction 1 :   0.453   0.146  -0.322
 Linear response progress:
  Degree of freedom:   5/144
       N       E                     dE             d eps       ncg     rms          rms(c)
RMM:   1    -0.175826751068E-01   -0.17583E-01    0.24021E-03 22027   0.258E-01
RMM:   2    -0.129320509265E-01    0.46506E-02   -0.26252E-03 15840   0.686E-02    0.132E-01
RMM:   3    -0.138088927697E-01   -0.87684E-03   -0.50793E-04 17501   0.299E-02    0.715E-02
RMM:   4    -0.140379328158E-01   -0.22904E-03   -0.22460E-04 16491   0.168E-02    0.239E-02
RMM:   5    -0.138783323232E-01    0.15960E-03   -0.15840E-04 16283   0.786E-03    0.361E-03
RMM:   6    -0.139003860414E-01   -0.22054E-04   -0.38698E-04 17817   0.276E-03    0.162E-03
RMM:   7    -0.138755570665E-01    0.24829E-04   -0.48361E-04 16443   0.164E-03    0.746E-04
RMM:   8    -0.138593679977E-01    0.16189E-04   -0.55383E-04 18902   0.929E-04    0.461E-04
RMM:   9    -0.138609109658E-01   -0.15430E-05   -0.62021E-04 16726   0.610E-04    0.133E-04
RMM:  10    -0.138601049234E-01    0.80604E-06   -0.60336E-04 20851   0.391E-04    0.797E-05
RMM:  11    -0.138599147583E-01    0.19017E-06   -0.62907E-04 18114   0.307E-04    0.232E-05
RMM:  12    -0.138586477827E-01    0.12670E-05   -0.61853E-04 22257   0.259E-04    0.147E-05
RMM:  13    -0.138550216689E-01    0.36261E-05   -0.58343E-04 21373   0.245E-04    0.520E-06
RMM:  14    -0.138578026595E-01   -0.27810E-05   -0.61262E-04 23352   0.236E-04    0.445E-06
 force on displaced ion       2 direction 2 :  -4.162 -13.369  12.481
 Born effective charge ion    2 direction 2 :   0.162   0.275  -0.191
 Linear response progress:
  Degree of freedom:   6/144
       N       E                     dE             d eps       ncg     rms          rms(c)
RMM:   1    -0.223562273633E-01   -0.22356E-01    0.13746E-02 22769   0.357E-01
RMM:   2    -0.250237965459E-01   -0.26676E-02    0.26818E-03 15771   0.101E-01    0.167E-01
RMM:   3    -0.216932135254E-01    0.33306E-02    0.86129E-04 17488   0.428E-02    0.856E-02
RMM:   4    -0.217093163028E-01   -0.16103E-04    0.14725E-03 16840   0.220E-02    0.327E-02
RMM:   5    -0.230496605450E-01   -0.13403E-02    0.24479E-03 16469   0.115E-02    0.575E-03
RMM:   6    -0.228832794213E-01    0.16638E-03    0.33583E-03 18047   0.454E-03    0.239E-03
RMM:   7    -0.230029762453E-01   -0.11970E-03    0.43839E-03 16457   0.289E-03    0.162E-03
RMM:   8    -0.231081791240E-01   -0.10520E-03    0.44238E-03 19916   0.173E-03    0.660E-04
RMM:   9    -0.231363839963E-01   -0.28205E-04    0.48826E-03 16523   0.130E-03    0.193E-04
RMM:  10    -0.231302263018E-01    0.61577E-05    0.50209E-03 20557   0.961E-04    0.123E-04
RMM:  11    -0.231272010205E-01    0.30253E-05    0.51127E-03 18692   0.874E-04    0.302E-05
RMM:  12    -0.231196517296E-01    0.75493E-05    0.51817E-03 22211   0.816E-04    0.272E-05
RMM:  13    -0.231261435898E-01   -0.64919E-05    0.51172E-03 21936   0.789E-04    0.129E-05
RMM:  14    -0.231175637764E-01    0.85798E-05    0.52020E-03 22843   0.777E-04    0.894E-06
 force on displaced ion       2 direction 3 :   6.667  12.482 -24.675
 Born effective charge ion    2 direction 3 :  -0.445  -0.154   0.768
 Linear response progress:
  Degree of freedom:   7/144
       N       E                     dE             d eps       ncg     rms          rms(c)
RMM:   1    -0.155401216263E-01   -0.15540E-01    0.34456E-03 21501   0.247E-01
RMM:   2    -0.121051633204E-01    0.34350E-02   -0.17393E-03 16243   0.600E-02    0.106E-01
RMM:   3    -0.124361046692E-01   -0.33094E-03   -0.68470E-04 17285   0.199E-02    0.624E-02
RMM:   4    -0.123354469787E-01    0.10066E-03   -0.85259E-04 15685   0.166E-02    0.122E-02
RMM:   5    -0.120165618424E-01    0.31889E-03   -0.14549E-04 17347   0.671E-03    0.272E-03
RMM:   6    -0.120249375266E-01   -0.83757E-05   -0.20558E-04 17402   0.246E-03    0.131E-03
RMM:   7    -0.119875129094E-01    0.37425E-04   -0.20176E-04 16527   0.160E-03    0.604E-04
RMM:   8    -0.119433620973E-01    0.44151E-04   -0.13621E-04 19087   0.991E-04    0.400E-04
RMM:   9    -0.119472549692E-01   -0.38929E-05   -0.25849E-04 17649   0.818E-04    0.968E-05
RMM:  10    -0.119516658279E-01   -0.44109E-05   -0.27629E-04 20722   0.597E-04    0.672E-05
RMM:  11    -0.119558762386E-01   -0.42104E-05   -0.33676E-04 19021   0.532E-04    0.218E-05
RMM:  12    -0.119650654600E-01   -0.91892E-05   -0.42943E-04 22604   0.494E-04    0.112E-05
RMM:  13    -0.119618419515E-01    0.32235E-05   -0.39694E-04 20937   0.484E-04    0.343E-06
 force on displaced ion       3 direction 1 :  -7.425   4.162   6.667
 Born effective charge ion    3 direction 1 :   0.453  -0.146  -0.322
 Linear response progress:
  Degree of freedom:   8/144
       N       E                     dE             d eps       ncg     rms          rms(c)
RMM:   1    -0.175248286131E-01   -0.17525E-01    0.28438E-03 21991   0.258E-01
RMM:   2    -0.169724433573E-01    0.55239E-03   -0.54513E-04 15817   0.684E-02    0.132E-01
RMM:   3    -0.160581475099E-01    0.91430E-03   -0.38216E-04 17492   0.299E-02    0.715E-02
RMM:   4    -0.160366073243E-01    0.21540E-04   -0.65248E-05 16534   0.167E-02    0.239E-02
RMM:   5    -0.162625157409E-01   -0.22591E-03    0.14316E-04 16235   0.785E-03    0.361E-03
RMM:   6    -0.162349513161E-01    0.27564E-04    0.39691E-04 17755   0.274E-03    0.162E-03
RMM:   7    -0.162409133946E-01   -0.59621E-05    0.54386E-04 16395   0.163E-03    0.751E-04
RMM:   8    -0.162603298556E-01   -0.19416E-04    0.54461E-04 18819   0.913E-04    0.474E-04
RMM:   9    -0.162504660238E-01    0.98638E-05    0.65413E-04 16613   0.590E-04    0.131E-04
RMM:  10    -0.162558725741E-01   -0.54066E-05    0.59132E-04 20678   0.365E-04    0.796E-05
RMM:  11    -0.162523826638E-01    0.34899E-05    0.64771E-04 17996   0.282E-04    0.221E-05
RMM:  12    -0.162543397397E-01   -0.19571E-05    0.62920E-04 22011   0.233E-04    0.159E-05
RMM:  13    -0.162562007930E-01   -0.18611E-05    0.61184E-04 21286   0.218E-04    0.595E-06
RMM:  14    -0.162556751372E-01    0.52566E-06    0.61843E-04 23051   0.210E-04    0.463E-06
RMM:  15    -0.162563246880E-01   -0.64955E-06    0.61194E-04 22855   0.205E-04    0.256E-06
 force on displaced ion       3 direction 2 :   4.162 -13.369 -12.481
 Born effective charge ion    3 direction 2 :  -0.162   0.275   0.191
 Linear response progress:
  Degree of freedom:   9/144
       N       E                     dE             d eps       ncg     rms          rms(c)
RMM:   1    -0.222900358994E-01   -0.22290E-01    0.14168E-02 22770   0.356E-01
RMM:   2    -0.249837747562E-01   -0.26937E-02    0.27725E-03 15773   0.100E-01    0.167E-01
RMM:   3    -0.216804280710E-01    0.33033E-02    0.73798E-04 17485   0.428E-02    0.857E-02
RMM:   4    -0.216797856367E-01    0.64243E-06    0.14780E-03 16842   0.221E-02    0.327E-02
RMM:   5    -0.230126672962E-01   -0.13329E-02    0.24540E-03 16465   0.115E-02    0.575E-03
RMM:   6    -0.228505567356E-01    0.16211E-03    0.33210E-03 18037   0.455E-03    0.239E-03
RMM:   7    -0.229690168355E-01   -0.11846E-03    0.43391E-03 16464   0.289E-03    0.163E-03
RMM:   8    -0.230702517104E-01   -0.10123E-03    0.44127E-03 19919   0.173E-03    0.660E-04
RMM:   9    -0.230988051953E-01   -0.28553E-04    0.48644E-03 16518   0.130E-03    0.195E-04
RMM:  10    -0.230940399968E-01    0.47652E-05    0.49890E-03 20536   0.961E-04    0.124E-04
RMM:  11    -0.230915986119E-01    0.24414E-05    0.50757E-03 18693   0.874E-04    0.302E-05
RMM:  12    -0.230846398132E-01    0.69588E-05    0.51386E-03 22177   0.816E-04    0.276E-05
RMM:  13    -0.230902334802E-01   -0.55937E-05    0.50833E-03 21863   0.789E-04    0.129E-05
RMM:  14    -0.230826180398E-01    0.76154E-05    0.51585E-03 22811   0.777E-04    0.894E-06
 force on displaced ion       3 direction 3 :   6.667 -12.482 -24.675
 Born effective charge ion    3 direction 3 :  -0.445   0.154   0.768
 Linear response progress:
  Degree of freedom:  10/144
       N       E                     dE             d eps       ncg     rms          rms(c)
RMM:   1    -0.155517719578E-01   -0.15552E-01    0.33672E-03 21471   0.247E-01
RMM:   2    -0.164893994565E-01   -0.93763E-03   -0.75511E-04 16270   0.601E-02    0.106E-01
RMM:   3    -0.162196071557E-01    0.26979E-03    0.52107E-05 17277   0.198E-02    0.624E-02
RMM:   4    -0.165086894158E-01   -0.28908E-03    0.13515E-04 15678   0.165E-02    0.122E-02
RMM:   5    -0.167756426353E-01   -0.26695E-03    0.26625E-04 17328   0.664E-03    0.272E-03
RMM:   6    -0.167644616933E-01    0.11181E-04    0.33837E-04 17381   0.240E-03    0.130E-03
RMM:   7    -0.167974822474E-01   -0.33021E-04    0.24668E-04 16497   0.154E-03    0.604E-04
RMM:   8    -0.168355865149E-01   -0.38104E-04    0.19480E-04 18996   0.934E-04    0.403E-04
RMM:   9    -0.168290927393E-01    0.64938E-05    0.29992E-04 17719   0.754E-04    0.978E-05
RMM:  10    -0.168273712516E-01    0.17215E-05    0.29954E-04 20681   0.532E-04    0.680E-05
RMM:  11    -0.168240414590E-01    0.33298E-05    0.35142E-04 19095   0.466E-04    0.226E-05
RMM:  12    -0.168245821397E-01   -0.54068E-06    0.34694E-04 22629   0.426E-04    0.121E-05
RMM:  13    -0.168256872160E-01   -0.11051E-05    0.33701E-04 20899   0.416E-04    0.368E-06
RMM:  14    -0.168264277236E-01   -0.74051E-06    0.32849E-04 23730   0.407E-04    0.282E-06
 force on displaced ion       4 direction 1 :  -7.425   4.162   6.667
 Born effective charge ion    4 direction 1 :   0.453  -0.146  -0.322
 Linear response progress:
  Degree of freedom:  11/144
       N       E                     dE             d eps       ncg     rms          rms(c)
RMM:   1    -0.175751893457E-01   -0.17575E-01    0.24563E-03 21988   0.258E-01
RMM:   2    -0.129467222432E-01    0.46285E-02   -0.27665E-03 15824   0.685E-02    0.132E-01
RMM:   3    -0.138012179227E-01   -0.85450E-03   -0.43973E-04 17496   0.299E-02    0.715E-02
RMM:   4    -0.140326050120E-01   -0.23139E-03   -0.17665E-04 16514   0.168E-02    0.239E-02
RMM:   5    -0.138786956920E-01    0.15391E-03   -0.15984E-04 16282   0.786E-03    0.361E-03
RMM:   6    -0.139008161009E-01   -0.22120E-04   -0.38704E-04 17831   0.276E-03    0.162E-03
RMM:   7    -0.138761268896E-01    0.24689E-04   -0.48376E-04 16437   0.164E-03    0.747E-04
RMM:   8    -0.138598545350E-01    0.16272E-04   -0.55231E-04 18909   0.929E-04    0.461E-04
RMM:   9    -0.138611460114E-01   -0.12915E-05   -0.61625E-04 16711   0.610E-04    0.134E-04
RMM:  10    -0.138604262225E-01    0.71979E-06   -0.60017E-04 20844   0.391E-04    0.793E-05
RMM:  11    -0.138601632550E-01    0.26297E-06   -0.62499E-04 18121   0.308E-04    0.227E-05
RMM:  12    -0.138589659731E-01    0.11973E-05   -0.61507E-04 22261   0.260E-04    0.149E-05
RMM:  13    -0.138552177578E-01    0.37482E-05   -0.57880E-04 21433   0.246E-04    0.522E-06
RMM:  14    -0.138581179833E-01   -0.29002E-05   -0.60904E-04 23433   0.238E-04    0.456E-06
 force on displaced ion       4 direction 2 :   4.162 -13.369 -12.481
 Born effective charge ion    4 direction 2 :  -0.162   0.275   0.191
 Linear response progress:
  Degree of freedom:  12/144
       N       E                     dE             d eps       ncg     rms          rms(c)
RMM:   1    -0.223433918119E-01   -0.22343E-01    0.13823E-02 22777   0.356E-01
RMM:   2    -0.523857200093E-02    0.17105E-01   -0.10324E-02 15780   0.100E-01    0.167E-01
RMM:   3    -0.848604954921E-02   -0.32475E-02   -0.44162E-03 17459   0.429E-02    0.856E-02
RMM:   4    -0.868107661806E-02   -0.19503E-03   -0.40411E-03 16827   0.221E-02    0.327E-02
RMM:   5    -0.714612607963E-02    0.15350E-02   -0.27584E-03 16443   0.115E-02    0.574E-03
RMM:   6    -0.746301894099E-02   -0.31689E-03   -0.52422E-03 17983   0.460E-03    0.238E-03
RMM:   7    -0.720514024118E-02    0.25788E-03   -0.54489E-03 16432   0.295E-03    0.163E-03
RMM:   8    -0.711948594707E-02    0.85654E-04   -0.58122E-03 19899   0.179E-03    0.665E-04
RMM:   9    -0.710743035186E-02    0.12056E-04   -0.66136E-03 16479   0.137E-03    0.193E-04
RMM:  10    -0.713945162040E-02   -0.32021E-04   -0.70230E-03 20582   0.103E-03    0.123E-04
RMM:  11    -0.713909565748E-02    0.35596E-06   -0.70941E-03 18601   0.939E-04    0.314E-05
RMM:  12    -0.715348293388E-02   -0.14387E-04   -0.72314E-03 22176   0.882E-04    0.270E-05
RMM:  13    -0.717011635540E-02   -0.16633E-04   -0.73973E-03 21922   0.856E-04    0.139E-05
 force on displaced ion       4 direction 3 :   6.667 -12.483 -24.677
 Born effective charge ion    4 direction 3 :  -0.445   0.153   0.768
 Linear response progress:
  Degree of freedom:  13/144
       N       E                     dE             d eps       ncg     rms          rms(c)
RMM:   1    -0.155501335680E-01   -0.15550E-01    0.33852E-03 21482   0.247E-01
RMM:   2    -0.121047135378E-01    0.34454E-02   -0.17072E-03 16267   0.600E-02    0.106E-01
RMM:   3    -0.124354490448E-01   -0.33074E-03   -0.66018E-04 17254   0.198E-02    0.624E-02
RMM:   4    -0.123358104183E-01    0.99639E-04   -0.86687E-04 15692   0.165E-02    0.122E-02
RMM:   5    -0.120154931074E-01    0.32032E-03   -0.15705E-04 17342   0.669E-03    0.272E-03
RMM:   6    -0.120217582134E-01   -0.62651E-05   -0.20189E-04 17398   0.246E-03    0.130E-03
RMM:   7    -0.119841297890E-01    0.37628E-04   -0.19963E-04 16530   0.160E-03    0.604E-04
RMM:   8    -0.119395400589E-01    0.44590E-04   -0.13516E-04 19026   0.992E-04    0.401E-04
RMM:   9    -0.119435396341E-01   -0.39996E-05   -0.25680E-04 17679   0.819E-04    0.971E-05
RMM:  10    -0.119478639176E-01   -0.43243E-05   -0.27396E-04 20726   0.598E-04    0.673E-05
RMM:  11    -0.119520707700E-01   -0.42069E-05   -0.33477E-04 19055   0.533E-04    0.219E-05
RMM:  12    -0.119613022005E-01   -0.92314E-05   -0.42753E-04 22552   0.494E-04    0.112E-05
RMM:  13    -0.119580825528E-01    0.32196E-05   -0.39485E-04 21003   0.485E-04    0.339E-06
 force on displaced ion       5 direction 1 :  -7.425  -4.162  -6.667
 Born effective charge ion    5 direction 1 :   0.453   0.146   0.322
 Linear response progress:
  Degree of freedom:  14/144
       N       E                     dE             d eps       ncg     rms          rms(c)
RMM:   1    -0.175805165911E-01   -0.17581E-01    0.24121E-03 21971   0.258E-01
RMM:   2    -0.129559634157E-01    0.46246E-02   -0.28667E-03 15823   0.686E-02    0.132E-01
RMM:   3    -0.138019253629E-01   -0.84596E-03   -0.44031E-04 17515   0.299E-02    0.715E-02
RMM:   4    -0.140330761392E-01   -0.23115E-03   -0.17798E-04 16487   0.167E-02    0.239E-02
RMM:   5    -0.138791977793E-01    0.15388E-03   -0.16508E-04 16293   0.786E-03    0.360E-03
RMM:   6    -0.139006344670E-01   -0.21437E-04   -0.38833E-04 17824   0.276E-03    0.162E-03
RMM:   7    -0.138760126404E-01    0.24622E-04   -0.48574E-04 16447   0.164E-03    0.746E-04
RMM:   8    -0.138600792054E-01    0.15933E-04   -0.55661E-04 18893   0.926E-04    0.457E-04
RMM:   9    -0.138611484629E-01   -0.10693E-05   -0.61941E-04 16717   0.610E-04    0.133E-04
RMM:  10    -0.138604876976E-01    0.66077E-06   -0.60388E-04 20852   0.391E-04    0.791E-05
RMM:  11    -0.138601977798E-01    0.28992E-06   -0.62852E-04 18108   0.308E-04    0.229E-05
RMM:  12    -0.138590246673E-01    0.11731E-05   -0.61875E-04 22230   0.260E-04    0.149E-05
RMM:  13    -0.138552865912E-01    0.37381E-05   -0.58261E-04 21355   0.247E-04    0.519E-06
RMM:  14    -0.138581683239E-01   -0.28817E-05   -0.61268E-04 23313   0.238E-04    0.453E-06
 force on displaced ion       5 direction 2 :  -4.162 -13.369 -12.481
 Born effective charge ion    5 direction 2 :   0.162   0.275   0.191
 Linear response progress:
  Degree of freedom:  15/144
       N       E                     dE             d eps       ncg     rms          rms(c)
RMM:   1    -0.223516781935E-01   -0.22352E-01    0.13778E-02 22761   0.356E-01
RMM:   2    -0.522277602197E-02    0.17129E-01   -0.10179E-02 15784   0.101E-01    0.167E-01
RMM:   3    -0.849425354907E-02   -0.32715E-02   -0.44961E-03 17462   0.429E-02    0.856E-02
RMM:   4    -0.868545322954E-02   -0.19120E-03   -0.40863E-03 16837   0.221E-02    0.327E-02
RMM:   5    -0.714354510479E-02    0.15419E-02   -0.27284E-03 16430   0.115E-02    0.573E-03
RMM:   6    -0.746295797696E-02   -0.31941E-03   -0.52487E-03 17996   0.460E-03    0.239E-03
RMM:   7    -0.720552609211E-02    0.25743E-03   -0.54603E-03 16430   0.295E-03    0.162E-03
RMM:   8    -0.712022169795E-02    0.85304E-04   -0.58218E-03 19919   0.178E-03    0.665E-04
RMM:   9    -0.710622535857E-02    0.13996E-04   -0.66089E-03 16489   0.137E-03    0.195E-04
RMM:  10    -0.714014049162E-02   -0.33915E-04   -0.70366E-03 20562   0.103E-03    0.123E-04
RMM:  11    -0.713888132322E-02    0.12592E-05   -0.70989E-03 18575   0.940E-04    0.310E-05
RMM:  12    -0.715421522377E-02   -0.15334E-04   -0.72459E-03 22159   0.882E-04    0.270E-05
RMM:  13    -0.717006358668E-02   -0.15848E-04   -0.74041E-03 21886   0.856E-04    0.137E-05
 force on displaced ion       5 direction 3 :  -6.667 -12.483 -24.677
 Born effective charge ion    5 direction 3 :   0.445   0.153   0.768
 Linear response progress:
  Degree of freedom:  16/144
       N       E                     dE             d eps       ncg     rms          rms(c)
RMM:   1    -0.155406146625E-01   -0.15541E-01    0.34337E-03 21446   0.247E-01
RMM:   2    -0.164949456372E-01   -0.95433E-03   -0.78400E-04 16247   0.600E-02    0.106E-01
RMM:   3    -0.162245115770E-01    0.27043E-03    0.24233E-05 17300   0.198E-02    0.624E-02
RMM:   4    -0.165072285737E-01   -0.28272E-03    0.14577E-04 15675   0.165E-02    0.122E-02
RMM:   5    -0.167728942444E-01   -0.26567E-03    0.27565E-04 17345   0.666E-03    0.272E-03
RMM:   6    -0.167624898963E-01    0.10404E-04    0.33534E-04 17362   0.241E-03    0.130E-03
RMM:   7    -0.167942199821E-01   -0.31730E-04    0.25248E-04 16495   0.154E-03    0.605E-04
RMM:   8    -0.168323722645E-01   -0.38152E-04    0.19823E-04 19027   0.935E-04    0.403E-04
RMM:   9    -0.168257676344E-01    0.66046E-05    0.30273E-04 17711   0.755E-04    0.981E-05
RMM:  10    -0.168242911284E-01    0.14765E-05    0.29953E-04 20687   0.533E-04    0.683E-05
RMM:  11    -0.168207443909E-01    0.35467E-05    0.35368E-04 19069   0.466E-04    0.227E-05
RMM:  12    -0.168222011149E-01   -0.14567E-05    0.33995E-04 22637   0.427E-04    0.121E-05
RMM:  13    -0.168227504947E-01   -0.54938E-06    0.33559E-04 20917   0.416E-04    0.369E-06
RMM:  14    -0.168235584054E-01   -0.80791E-06    0.32637E-04 23657   0.408E-04    0.288E-06
 force on displaced ion       6 direction 1 :  -7.425  -4.162  -6.667
 Born effective charge ion    6 direction 1 :   0.453   0.146   0.322
 Linear response progress:
  Degree of freedom:  17/144
       N       E                     dE             d eps       ncg     rms          rms(c)
RMM:   1    -0.175473851689E-01   -0.17547E-01    0.25892E-03 21977   0.258E-01
RMM:   2    -0.169859924085E-01    0.56139E-03   -0.43769E-04 15825   0.684E-02    0.132E-01
RMM:   3    -0.160745568356E-01    0.91144E-03   -0.39111E-04 17495   0.299E-02    0.715E-02
RMM:   4    -0.160504698154E-01    0.24087E-04   -0.71301E-05 16536   0.168E-02    0.239E-02
RMM:   5    -0.162772875250E-01   -0.22682E-03    0.14982E-04 16240   0.786E-03    0.361E-03
RMM:   6    -0.162499687728E-01    0.27319E-04    0.39791E-04 17756   0.275E-03    0.162E-03
RMM:   7    -0.162560363290E-01   -0.60676E-05    0.54560E-04 16370   0.163E-03    0.753E-04
RMM:   8    -0.162755764491E-01   -0.19540E-04    0.54715E-04 18828   0.913E-04    0.474E-04
RMM:   9    -0.162657422512E-01    0.98342E-05    0.65651E-04 16607   0.591E-04    0.130E-04
RMM:  10    -0.162712332835E-01   -0.54910E-05    0.59286E-04 20675   0.365E-04    0.793E-05
RMM:  11    -0.162675790346E-01    0.36542E-05    0.65106E-04 17994   0.282E-04    0.219E-05
RMM:  12    -0.162695940600E-01   -0.20150E-05    0.63181E-04 22106   0.233E-04    0.158E-05
RMM:  13    -0.162714016583E-01   -0.18076E-05    0.61484E-04 21363   0.219E-04    0.596E-06
RMM:  14    -0.162709191956E-01    0.48246E-06    0.62103E-04 23205   0.210E-04    0.460E-06
RMM:  15    -0.162716060065E-01   -0.68681E-06    0.61444E-04 23030   0.205E-04    0.260E-06
 force on displaced ion       6 direction 2 :  -4.162 -13.369 -12.481
 Born effective charge ion    6 direction 2 :   0.162   0.275   0.191
 Linear response progress:
  Degree of freedom:  18/144
       N       E                     dE             d eps       ncg     rms          rms(c)
RMM:   1    -0.222799981529E-01   -0.22280E-01    0.14225E-02 22761   0.356E-01
RMM:   2    -0.250695681980E-01   -0.27896E-02    0.25815E-03 15788   0.100E-01    0.167E-01
RMM:   3    -0.217156985442E-01    0.33539E-02    0.78441E-04 17493   0.428E-02    0.856E-02
RMM:   4    -0.217128681560E-01    0.28304E-05    0.15166E-03 16817   0.221E-02    0.327E-02
RMM:   5    -0.230566357020E-01   -0.13438E-02    0.24494E-03 16463   0.115E-02    0.575E-03
RMM:   6    -0.228899491919E-01    0.16669E-03    0.33507E-03 18046   0.455E-03    0.239E-03
RMM:   7    -0.230084940927E-01   -0.11854E-03    0.43712E-03 16455   0.289E-03    0.163E-03
RMM:   8    -0.231114484724E-01   -0.10295E-03    0.44335E-03 19908   0.173E-03    0.660E-04
RMM:   9    -0.231398439470E-01   -0.28395E-04    0.48903E-03 16523   0.130E-03    0.194E-04
RMM:  10    -0.231354537593E-01    0.43902E-05    0.50111E-03 20539   0.962E-04    0.124E-04
RMM:  11    -0.231319158321E-01    0.35379E-05    0.51082E-03 18700   0.875E-04    0.303E-05
RMM:  12    -0.231253002257E-01    0.66156E-05    0.51680E-03 22183   0.817E-04    0.275E-05
RMM:  13    -0.231299498988E-01   -0.46497E-05    0.51221E-03 21916   0.791E-04    0.127E-05
RMM:  14    -0.231229992215E-01    0.69507E-05    0.51907E-03 22972   0.779E-04    0.889E-06
 force on displaced ion       6 direction 3 :  -6.667 -12.482 -24.675
 Born effective charge ion    6 direction 3 :   0.445   0.154   0.768
 Linear response progress:
  Degree of freedom:  19/144
       N       E                     dE             d eps       ncg     rms          rms(c)
RMM:   1    -0.155517866187E-01   -0.15552E-01    0.33608E-03 21475   0.247E-01
RMM:   2    -0.164922768983E-01   -0.94049E-03   -0.78412E-04 16261   0.600E-02    0.106E-01
RMM:   3    -0.162206556972E-01    0.27162E-03    0.42133E-05 17269   0.198E-02    0.624E-02
RMM:   4    -0.165071064322E-01   -0.28645E-03    0.15136E-04 15683   0.165E-02    0.122E-02
RMM:   5    -0.167754782424E-01   -0.26837E-03    0.27218E-04 17327   0.665E-03    0.272E-03
RMM:   6    -0.167649972192E-01    0.10481E-04    0.33656E-04 17375   0.241E-03    0.130E-03
RMM:   7    -0.167973844784E-01   -0.32387E-04    0.25318E-04 16496   0.154E-03    0.604E-04
RMM:   8    -0.168358951686E-01   -0.38511E-04    0.19732E-04 19001   0.934E-04    0.403E-04
RMM:   9    -0.168293767918E-01    0.65184E-05    0.30292E-04 17713   0.755E-04    0.983E-05
RMM:  10    -0.168277857107E-01    0.15911E-05    0.30108E-04 20689   0.533E-04    0.683E-05
RMM:  11    -0.168243807568E-01    0.34050E-05    0.35389E-04 19073   0.466E-04    0.228E-05
RMM:  12    -0.168257725308E-01   -0.13918E-05    0.34096E-04 22646   0.427E-04    0.122E-05
RMM:  13    -0.168263754564E-01   -0.60293E-06    0.33599E-04 20864   0.417E-04    0.374E-06
RMM:  14    -0.168271705095E-01   -0.79505E-06    0.32705E-04 23721   0.408E-04    0.286E-06
 force on displaced ion       7 direction 1 :  -7.425   4.162  -6.667
 Born effective charge ion    7 direction 1 :   0.453  -0.146   0.322
 Linear response progress:
  Degree of freedom:  20/144
       N       E                     dE             d eps       ncg     rms          rms(c)
RMM:   1    -0.175487831309E-01   -0.17549E-01    0.27430E-03 21991   0.259E-01
RMM:   2    -0.129225295273E-01    0.46263E-02   -0.25155E-03 15830   0.685E-02    0.132E-01
RMM:   3    -0.138094316910E-01   -0.88690E-03   -0.51921E-04 17513   0.299E-02    0.715E-02
RMM:   4    -0.140377316101E-01   -0.22830E-03   -0.22821E-04 16496   0.167E-02    0.239E-02
RMM:   5    -0.138778027992E-01    0.15993E-03   -0.15150E-04 16290   0.787E-03    0.360E-03
RMM:   6    -0.139004564084E-01   -0.22654E-04   -0.38624E-04 17839   0.276E-03    0.162E-03
RMM:   7    -0.138756640215E-01    0.24792E-04   -0.48205E-04 16431   0.164E-03    0.747E-04
RMM:   8    -0.138594308897E-01    0.16233E-04   -0.54995E-04 18907   0.927E-04    0.458E-04
RMM:   9    -0.138608480248E-01   -0.14171E-05   -0.61686E-04 16705   0.610E-04    0.134E-04
RMM:  10    -0.138602136442E-01    0.63438E-06   -0.60163E-04 20850   0.391E-04    0.792E-05
RMM:  11    -0.138599457805E-01    0.26786E-06   -0.62640E-04 18117   0.307E-04    0.232E-05
RMM:  12    -0.138586186550E-01    0.13271E-05   -0.61536E-04 22256   0.260E-04    0.148E-05
RMM:  13    -0.138550153071E-01    0.36033E-05   -0.58050E-04 21433   0.246E-04    0.526E-06
RMM:  14    -0.138577857918E-01   -0.27705E-05   -0.60954E-04 23359   0.238E-04    0.454E-06
 force on displaced ion       7 direction 2 :   4.162 -13.369  12.481
 Born effective charge ion    7 direction 2 :  -0.162   0.275  -0.191
 Linear response progress:
  Degree of freedom:  21/144
       N       E                     dE             d eps       ncg     rms          rms(c)
RMM:   1    -0.223517075216E-01   -0.22352E-01    0.13764E-02 22788   0.357E-01
RMM:   2    -0.250530759521E-01   -0.27014E-02    0.23957E-03 15773   0.100E-01    0.167E-01
RMM:   3    -0.216890412999E-01    0.33640E-02    0.87753E-04 17482   0.428E-02    0.856E-02
RMM:   4    -0.217050043588E-01   -0.15963E-04    0.14963E-03 16845   0.221E-02    0.327E-02
RMM:   5    -0.230514416501E-01   -0.13464E-02    0.24316E-03 16466   0.115E-02    0.575E-03
RMM:   6    -0.228815196787E-01    0.16992E-03    0.33699E-03 18055   0.453E-03    0.239E-03
RMM:   7    -0.230002602152E-01   -0.11874E-03    0.44012E-03 16458   0.289E-03    0.163E-03
RMM:   8    -0.231069242581E-01   -0.10666E-03    0.44323E-03 19895   0.173E-03    0.660E-04
RMM:   9    -0.231349662457E-01   -0.28042E-04    0.48934E-03 16517   0.130E-03    0.193E-04
RMM:  10    -0.231289541586E-01    0.60121E-05    0.50300E-03 20575   0.962E-04    0.124E-04
RMM:  11    -0.231260797431E-01    0.28744E-05    0.51201E-03 18703   0.875E-04    0.305E-05
RMM:  12    -0.231186424553E-01    0.74373E-05    0.51877E-03 22175   0.817E-04    0.273E-05
RMM:  13    -0.231251219116E-01   -0.64795E-05    0.51233E-03 21974   0.791E-04    0.130E-05
RMM:  14    -0.231164562314E-01    0.86657E-05    0.52091E-03 22871   0.779E-04    0.897E-06
 force on displaced ion       7 direction 3 :  -6.667  12.482 -24.675
 Born effective charge ion    7 direction 3 :   0.445  -0.154   0.768
 Linear response progress:
  Degree of freedom:  22/144
       N       E                     dE             d eps       ncg     rms          rms(c)
RMM:   1    -0.155404491864E-01   -0.15540E-01    0.34485E-03 21468   0.247E-01
RMM:   2    -0.121011703988E-01    0.34393E-02   -0.16991E-03 16258   0.601E-02    0.106E-01
RMM:   3    -0.124350751765E-01   -0.33390E-03   -0.67414E-04 17304   0.199E-02    0.624E-02
RMM:   4    -0.123369129335E-01    0.98162E-04   -0.86816E-04 15684   0.165E-02    0.122E-02
RMM:   5    -0.120175666702E-01    0.31935E-03   -0.15143E-04 17340   0.668E-03    0.272E-03
RMM:   6    -0.120248406873E-01   -0.72740E-05   -0.20226E-04 17413   0.246E-03    0.130E-03
RMM:   7    -0.119877537695E-01    0.37087E-04   -0.20007E-04 16530   0.160E-03    0.605E-04
RMM:   8    -0.119432757396E-01    0.44478E-04   -0.13457E-04 19055   0.993E-04    0.402E-04
RMM:   9    -0.119474617703E-01   -0.41860E-05   -0.25681E-04 17685   0.818E-04    0.964E-05
RMM:  10    -0.119518806128E-01   -0.44188E-05   -0.27422E-04 20714   0.597E-04    0.672E-05
RMM:  11    -0.119560587987E-01   -0.41782E-05   -0.33458E-04 19050   0.532E-04    0.218E-05
RMM:  12    -0.119653056668E-01   -0.92469E-05   -0.42754E-04 22549   0.494E-04    0.111E-05
RMM:  13    -0.119621043581E-01    0.32013E-05   -0.39508E-04 20974   0.484E-04    0.339E-06
 force on displaced ion       8 direction 1 :  -7.425   4.162  -6.667
 Born effective charge ion    8 direction 1 :   0.453  -0.146   0.322
 Linear response progress:
  Degree of freedom:  23/144
       N       E                     dE             d eps       ncg     rms          rms(c)
RMM:   1    -0.175509963387E-01   -0.17551E-01    0.25595E-03 21948   0.258E-01
RMM:   2    -0.169929850317E-01    0.55801E-03   -0.76094E-04 15816   0.683E-02    0.132E-01
RMM:   3    -0.160520045551E-01    0.94098E-03   -0.31856E-04 17501   0.299E-02    0.715E-02
RMM:   4    -0.160321886703E-01    0.19816E-04   -0.20739E-05 16521   0.167E-02    0.239E-02
RMM:   5    -0.162629383324E-01   -0.23075E-03    0.13815E-04 16236   0.785E-03    0.361E-03
RMM:   6    -0.162346430212E-01    0.28295E-04    0.39722E-04 17739   0.275E-03    0.162E-03
RMM:   7    -0.162409795097E-01   -0.63365E-05    0.54001E-04 16391   0.163E-03    0.752E-04
RMM:   8    -0.162605225924E-01   -0.19543E-04    0.53953E-04 18818   0.915E-04    0.476E-04
RMM:   9    -0.162493532373E-01    0.11169E-04    0.66088E-04 16608   0.591E-04    0.130E-04
RMM:  10    -0.162549135946E-01   -0.55604E-05    0.59678E-04 20658   0.365E-04    0.797E-05
RMM:  11    -0.162518285718E-01    0.30850E-05    0.64908E-04 17996   0.282E-04    0.220E-05
RMM:  12    -0.162537762344E-01   -0.19477E-05    0.63039E-04 22016   0.233E-04    0.160E-05
RMM:  13    -0.162558867556E-01   -0.21105E-05    0.61067E-04 21236   0.218E-04    0.591E-06
RMM:  14    -0.162552581930E-01    0.62856E-06    0.61819E-04 23023   0.210E-04    0.440E-06
RMM:  15    -0.162561726563E-01   -0.91446E-06    0.60922E-04 22875   0.205E-04    0.254E-06
 force on displaced ion       8 direction 2 :   4.162 -13.369  12.481
 Born effective charge ion    8 direction 2 :  -0.162   0.275  -0.191
 Linear response progress:
  Degree of freedom:  24/144
       N       E                     dE             d eps       ncg     rms          rms(c)
RMM:   1    -0.222820385557E-01   -0.22282E-01    0.14225E-02 22749   0.356E-01
RMM:   2    -0.517144503330E-02    0.17111E-01   -0.99729E-03 15756   0.100E-01    0.167E-01
RMM:   3    -0.848627686619E-02   -0.33148E-02   -0.45773E-03 17473   0.429E-02    0.856E-02
RMM:   4    -0.867491656677E-02   -0.18864E-03   -0.40568E-03 16825   0.221E-02    0.327E-02
RMM:   5    -0.713298208760E-02    0.15419E-02   -0.26998E-03 16442   0.116E-02    0.575E-03
RMM:   6    -0.746057653388E-02   -0.32759E-03   -0.52743E-03 17984   0.462E-03    0.239E-03
RMM:   7    -0.720350026309E-02    0.25708E-03   -0.54789E-03 16445   0.296E-03    0.163E-03
RMM:   8    -0.711597949252E-02    0.87521E-04   -0.58189E-03 19905   0.179E-03    0.666E-04
RMM:   9    -0.710289308904E-02    0.13086E-04   -0.66120E-03 16483   0.137E-03    0.195E-04
RMM:  10    -0.713700916133E-02   -0.34116E-04   -0.70428E-03 20561   0.103E-03    0.123E-04
RMM:  11    -0.713666083803E-02    0.34832E-06   -0.71145E-03 18598   0.940E-04    0.312E-05
RMM:  12    -0.715153056441E-02   -0.14870E-04   -0.72568E-03 22183   0.881E-04    0.272E-05
RMM:  13    -0.716781559770E-02   -0.16285E-04   -0.74193E-03 21881   0.856E-04    0.138E-05
 force on displaced ion       8 direction 3 :  -6.667  12.483 -24.677
 Born effective charge ion    8 direction 3 :   0.445  -0.153   0.768
 Linear response progress:
  Degree of freedom:  25/144
       N       E                     dE             d eps       ncg     rms          rms(c)
RMM:   1    -0.280587297775E-01   -0.28059E-01   -0.30734E-03 23709   0.358E-01
RMM:   2    -0.141263832581E-02    0.26646E-01   -0.12872E-02 16234   0.102E-01    0.193E-01
RMM:   3    -0.683039246252E-02   -0.54178E-02   -0.75902E-03 16475   0.507E-02    0.966E-02
RMM:   4    -0.726646756915E-02   -0.43608E-03   -0.55205E-03 16689   0.251E-02    0.387E-02
RMM:   5    -0.544262849083E-02    0.18238E-02   -0.49162E-03 16513   0.129E-02    0.679E-03
RMM:   6    -0.614671678443E-02   -0.70409E-03   -0.10874E-02 17404   0.510E-03    0.263E-03
RMM:   7    -0.591707423381E-02    0.22964E-03   -0.11887E-02 16334   0.298E-03    0.195E-03
RMM:   8    -0.573670721369E-02    0.18037E-03   -0.11662E-02 19337   0.180E-03    0.709E-04
RMM:   9    -0.574939120875E-02   -0.12684E-04   -0.12974E-02 16363   0.127E-03    0.190E-04
RMM:  10    -0.578657995613E-02   -0.37189E-04   -0.13536E-02 20323   0.926E-04    0.140E-04
RMM:  11    -0.577124884630E-02    0.15331E-04   -0.13523E-02 18626   0.843E-04    0.343E-05
RMM:  12    -0.577172564737E-02   -0.47680E-06   -0.13537E-02 21483   0.787E-04    0.273E-05
RMM:  13    -0.578570833573E-02   -0.13983E-04   -0.13678E-02 21189   0.764E-04    0.231E-05
RMM:  14    -0.581429540838E-02   -0.28587E-04   -0.13971E-02 21654   0.754E-04    0.955E-06
 force on displaced ion       9 direction 1 : -33.822  -1.580  -0.001
 Born effective charge ion    9 direction 1 :   1.076   0.178  -0.000
 Linear response progress:
  Degree of freedom:  26/144
       N       E                     dE             d eps       ncg     rms          rms(c)
RMM:   1    -0.152627713558E-01   -0.15263E-01   -0.64665E-03 19884   0.198E-01
RMM:   2    -0.125579021868E-01    0.27049E-02   -0.12250E-03 15905   0.424E-02    0.961E-02
RMM:   3    -0.123734388906E-01    0.18446E-03   -0.40866E-04 16425   0.123E-02    0.582E-02
RMM:   4    -0.123387779530E-01    0.34661E-04   -0.84748E-04 14714   0.139E-02    0.549E-03
RMM:   5    -0.124098334657E-01   -0.71056E-04   -0.24336E-04 17255   0.413E-03    0.176E-03
RMM:   6    -0.124058009452E-01    0.40325E-05   -0.21828E-04 17153   0.158E-03    0.103E-03
RMM:   7    -0.123951066131E-01    0.10694E-04   -0.31206E-04 15902   0.123E-03    0.404E-04
RMM:   8    -0.123984532387E-01   -0.33466E-05   -0.25871E-04 18927   0.646E-04    0.194E-04
RMM:   9    -0.124068949444E-01   -0.84417E-05   -0.29904E-04 16048   0.562E-04    0.866E-05
RMM:  10    -0.124129399482E-01   -0.60450E-05   -0.35509E-04 19484   0.421E-04    0.413E-05
RMM:  11    -0.124116038374E-01    0.13361E-05   -0.32015E-04 18225   0.378E-04    0.151E-05
RMM:  12    -0.124127081603E-01   -0.11043E-05   -0.33336E-04 20684   0.356E-04    0.943E-06
RMM:  13    -0.124110275782E-01    0.16806E-05   -0.31715E-04 21667   0.345E-04    0.416E-06
 force on displaced ion       9 direction 2 :  -1.584  -5.703   0.000
 Born effective charge ion    9 direction 2 :   0.220   0.209  -0.000
 Linear response progress:
  Degree of freedom:  27/144
       N       E                     dE             d eps       ncg     rms          rms(c)
RMM:   1    -0.153620822861E-01   -0.15362E-01   -0.66687E-03 19669   0.214E-01
RMM:   2    -0.143540880898E-01    0.10080E-02   -0.88276E-04 15906   0.502E-02    0.955E-02
RMM:   3    -0.143863033894E-01   -0.32215E-04   -0.48614E-05 16700   0.133E-02    0.579E-02
RMM:   4    -0.145210074654E-01   -0.13470E-03   -0.82094E-05 14312   0.154E-02    0.444E-03
RMM:   5    -0.145040066433E-01    0.17001E-04    0.11004E-05 16630   0.457E-03    0.124E-03
RMM:   6    -0.145055978869E-01   -0.15912E-05    0.83961E-06 16869   0.140E-03    0.759E-04
RMM:   7    -0.145044664851E-01    0.11314E-05    0.44159E-06 15172   0.996E-04    0.162E-04
RMM:   8    -0.145042571066E-01    0.20938E-06    0.57159E-06 19408   0.373E-04    0.108E-04
RMM:   9    -0.145043227779E-01   -0.65671E-07    0.70523E-06 16773   0.263E-04    0.383E-05
RMM:  10    -0.145042024583E-01    0.12032E-06    0.86101E-06 20501   0.174E-04    0.242E-05
RMM:  11    -0.145041690450E-01    0.33413E-07    0.92965E-06 19281   0.152E-04    0.619E-06
RMM:  12    -0.145040783905E-01    0.90654E-07    0.10298E-05 22152   0.136E-04    0.423E-06
RMM:  13    -0.145039899388E-01    0.88452E-07    0.11137E-05 21518   0.131E-04    0.154E-06
RMM:  14    -0.145039430983E-01    0.46840E-07    0.11647E-05 22755   0.127E-04    0.965E-07
 force on displaced ion       9 direction 3 :   0.001  -0.000  -5.212
 Born effective charge ion    9 direction 3 :   0.000  -0.000   0.198
 Linear response progress:
  Degree of freedom:  28/144
       N       E                     dE             d eps       ncg     rms          rms(c)
RMM:   1    -0.282987783275E-01   -0.28299E-01   -0.47640E-03 23695   0.360E-01
RMM:   2    -0.296395755691E-01   -0.13408E-02    0.74722E-03 16236   0.103E-01    0.193E-01
RMM:   3    -0.247398060025E-01    0.48998E-02   -0.19420E-04 16469   0.506E-02    0.966E-02
RMM:   4    -0.242573602868E-01    0.48245E-03    0.21402E-03 16728   0.250E-02    0.387E-02
RMM:   5    -0.257917172507E-01   -0.15344E-02    0.44605E-03 16559   0.128E-02    0.679E-03
RMM:   6    -0.254979286563E-01    0.29379E-03    0.61598E-03 17478   0.500E-03    0.264E-03
RMM:   7    -0.254275401130E-01    0.70389E-04    0.93817E-03 16305   0.291E-03    0.197E-03
RMM:   8    -0.255588503871E-01   -0.13131E-03    0.94804E-03 19297   0.174E-03    0.710E-04
RMM:   9    -0.256177654041E-01   -0.58915E-04    0.98144E-03 16443   0.120E-03    0.204E-04
RMM:  10    -0.255604134602E-01    0.57352E-04    0.10529E-02 20271   0.857E-04    0.143E-04
RMM:  11    -0.256104482610E-01   -0.50035E-04    0.10121E-02 18447   0.774E-04    0.349E-05
RMM:  12    -0.255220837889E-01    0.88364E-04    0.11006E-02 21501   0.719E-04    0.317E-05
RMM:  13    -0.256378372572E-01   -0.11575E-03    0.98505E-03 20816   0.695E-04    0.209E-05
RMM:  14    -0.255270469739E-01    0.11079E-03    0.10967E-02 21909   0.683E-04    0.104E-05
 force on displaced ion      10 direction 1 : -33.822  -1.581   0.001
 Born effective charge ion   10 direction 1 :   1.076   0.178   0.000
 Linear response progress:
  Degree of freedom:  29/144
       N       E                     dE             d eps       ncg     rms          rms(c)
RMM:   1    -0.152649022125E-01   -0.15265E-01   -0.64638E-03 19872   0.199E-01
RMM:   2    -0.157156007457E-01   -0.45070E-03   -0.56436E-04 15898   0.425E-02    0.961E-02
RMM:   3    -0.159619214311E-01   -0.24632E-03    0.13196E-04 16398   0.123E-02    0.582E-02
RMM:   4    -0.162631292710E-01   -0.30121E-03    0.28260E-04 14676   0.138E-02    0.548E-03
RMM:   5    -0.161621799818E-01    0.10095E-03    0.28817E-04 17299   0.411E-03    0.176E-03
RMM:   6    -0.161537206318E-01    0.84594E-05    0.40265E-04 17206   0.156E-03    0.103E-03
RMM:   7    -0.161825929560E-01   -0.28872E-04    0.24706E-04 15888   0.120E-03    0.394E-04
RMM:   8    -0.161715846882E-01    0.11008E-04    0.30249E-04 18947   0.624E-04    0.191E-04
RMM:   9    -0.161699699460E-01    0.16147E-05    0.29512E-04 16118   0.538E-04    0.810E-05
RMM:  10    -0.161672960719E-01    0.26739E-05    0.31780E-04 19390   0.400E-04    0.396E-05
RMM:  11    -0.161677839519E-01   -0.48788E-06    0.30093E-04 18276   0.358E-04    0.150E-05
RMM:  12    -0.161680528738E-01   -0.26892E-06    0.30159E-04 20626   0.335E-04    0.831E-06
RMM:  13    -0.161677732797E-01    0.27959E-06    0.30488E-04 21659   0.325E-04    0.385E-06
RMM:  14    -0.161678914791E-01   -0.11820E-06    0.30238E-04 21430   0.320E-04    0.144E-06
 force on displaced ion      10 direction 2 :  -1.584  -5.703  -0.000
 Born effective charge ion   10 direction 2 :   0.220   0.209   0.000
 Linear response progress:
  Degree of freedom:  30/144
       N       E                     dE             d eps       ncg     rms          rms(c)
RMM:   1    -0.153609159831E-01   -0.15361E-01   -0.66571E-03 19638   0.216E-01
RMM:   2    -0.144212021877E-01    0.93971E-03   -0.80240E-04 15907   0.496E-02    0.955E-02
RMM:   3    -0.144570435083E-01   -0.35841E-04    0.17102E-06 16696   0.132E-02    0.579E-02
RMM:   4    -0.145929075374E-01   -0.13586E-03   -0.35789E-05 14314   0.153E-02    0.444E-03
RMM:   5    -0.145748798982E-01    0.18028E-04    0.61356E-05 16626   0.453E-03    0.124E-03
RMM:   6    -0.145751119962E-01   -0.23210E-06    0.73130E-05 16841   0.140E-03    0.758E-04
RMM:   7    -0.145737496768E-01    0.13623E-05    0.72509E-05 15140   0.997E-04    0.163E-04
RMM:   8    -0.145732541373E-01    0.49554E-06    0.76435E-05 19393   0.375E-04    0.108E-04
RMM:   9    -0.145733129401E-01   -0.58803E-07    0.77522E-05 16726   0.265E-04    0.380E-05
RMM:  10    -0.145733245707E-01   -0.11631E-07    0.77793E-05 20532   0.175E-04    0.243E-05
RMM:  11    -0.145732049473E-01    0.11962E-06    0.79347E-05 19249   0.153E-04    0.621E-06
RMM:  12    -0.145732719385E-01   -0.66991E-07    0.78780E-05 22193   0.138E-04    0.424E-06
RMM:  13    -0.145731597842E-01    0.11215E-06    0.79734E-05 21573   0.132E-04    0.153E-06
RMM:  14    -0.145732088497E-01   -0.49065E-07    0.79214E-05 22797   0.128E-04    0.931E-07
 force on displaced ion      10 direction 3 :  -0.001   0.000  -5.212
 Born effective charge ion   10 direction 3 :  -0.000   0.000   0.198
 Linear response progress:
  Degree of freedom:  31/144
       N       E                     dE             d eps       ncg     rms          rms(c)
RMM:   1    -0.280963360907E-01   -0.28096E-01   -0.33216E-03 23699   0.359E-01
RMM:   2    -0.296068766269E-01   -0.15105E-02    0.68089E-03 16225   0.103E-01    0.193E-01
RMM:   3    -0.246533691329E-01    0.49535E-02    0.19951E-05 16481   0.507E-02    0.966E-02
RMM:   4    -0.242042920806E-01    0.44908E-03    0.21452E-03 16720   0.250E-02    0.387E-02
RMM:   5    -0.257474153841E-01   -0.15431E-02    0.43838E-03 16572   0.128E-02    0.680E-03
RMM:   6    -0.254472186753E-01    0.30020E-03    0.61667E-03 17474   0.501E-03    0.264E-03
RMM:   7    -0.253768205108E-01    0.70398E-04    0.94044E-03 16286   0.292E-03    0.198E-03
RMM:   8    -0.255095559741E-01   -0.13274E-03    0.94768E-03 19327   0.175E-03    0.712E-04
RMM:   9    -0.255691361961E-01   -0.59580E-04    0.98167E-03 16438   0.120E-03    0.206E-04
RMM:  10    -0.255139076490E-01    0.55229E-04    0.10513E-02 20242   0.858E-04    0.143E-04
RMM:  11    -0.255637165111E-01   -0.49809E-04    0.10111E-02 18497   0.775E-04    0.353E-05
RMM:  12    -0.254724797116E-01    0.91237E-04    0.11025E-02 21450   0.720E-04    0.318E-05
RMM:  13    -0.255944039171E-01   -0.12192E-03    0.98084E-03 20789   0.697E-04    0.212E-05
RMM:  14    -0.254812642935E-01    0.11314E-03    0.10948E-02 21848   0.685E-04    0.103E-05
 force on displaced ion      11 direction 1 : -33.822   1.581   0.001
 Born effective charge ion   11 direction 1 :   1.076  -0.178   0.000
 Linear response progress:
  Degree of freedom:  32/144
       N       E                     dE             d eps       ncg     rms          rms(c)
RMM:   1    -0.152629312038E-01   -0.15263E-01   -0.64598E-03 19904   0.198E-01
RMM:   2    -0.125504129960E-01    0.27125E-02   -0.12077E-03 15895   0.425E-02    0.961E-02
RMM:   3    -0.123670616931E-01    0.18335E-03   -0.40295E-04 16430   0.123E-02    0.582E-02
RMM:   4    -0.123326884419E-01    0.34373E-04   -0.84833E-04 14710   0.139E-02    0.549E-03
RMM:   5    -0.124035447330E-01   -0.70856E-04   -0.24367E-04 17270   0.414E-03    0.176E-03
RMM:   6    -0.123994727437E-01    0.40720E-05   -0.21937E-04 17149   0.158E-03    0.103E-03
RMM:   7    -0.123885997448E-01    0.10873E-04   -0.31296E-04 15905   0.123E-03    0.403E-04
RMM:   8    -0.123917233380E-01   -0.31236E-05   -0.25928E-04 18914   0.645E-04    0.193E-04
RMM:   9    -0.123999972512E-01   -0.82739E-05   -0.29909E-04 16056   0.562E-04    0.871E-05
RMM:  10    -0.124060441435E-01   -0.60469E-05   -0.35507E-04 19464   0.422E-04    0.416E-05
RMM:  11    -0.124046936084E-01    0.13505E-05   -0.31999E-04 18253   0.379E-04    0.153E-05
RMM:  12    -0.124057777776E-01   -0.10842E-05   -0.33310E-04 20691   0.356E-04    0.945E-06
RMM:  13    -0.124041046624E-01    0.16731E-05   -0.31690E-04 21570   0.346E-04    0.424E-06
 force on displaced ion      11 direction 2 :   1.584  -5.703   0.000
 Born effective charge ion   11 direction 2 :  -0.220   0.209  -0.000
 Linear response progress:
  Degree of freedom:  33/144
       N       E                     dE             d eps       ncg     rms          rms(c)
RMM:   1    -0.153615172295E-01   -0.15362E-01   -0.66632E-03 19675   0.215E-01
RMM:   2    -0.144026700326E-01    0.95885E-03   -0.77944E-04 15904   0.497E-02    0.955E-02
RMM:   3    -0.144407876572E-01   -0.38118E-04    0.29600E-06 16706   0.132E-02    0.579E-02
RMM:   4    -0.145781646772E-01   -0.13738E-03   -0.48065E-05 14319   0.153E-02    0.444E-03
RMM:   5    -0.145590667375E-01    0.19098E-04    0.61072E-05 16628   0.454E-03    0.124E-03
RMM:   6    -0.145599114110E-01   -0.84467E-06    0.66722E-05 16838   0.140E-03    0.759E-04
RMM:   7    -0.145583798499E-01    0.15316E-05    0.67603E-05 15142   0.997E-04    0.162E-04
RMM:   8    -0.145578903010E-01    0.48955E-06    0.71276E-05 19398   0.375E-04    0.108E-04
RMM:   9    -0.145579455086E-01   -0.55208E-07    0.72665E-05 16762   0.265E-04    0.377E-05
RMM:  10    -0.145580699276E-01   -0.12442E-06    0.71735E-05 20556   0.175E-04    0.242E-05
RMM:  11    -0.145579869172E-01    0.83010E-07    0.72985E-05 19295   0.153E-04    0.614E-06
RMM:  12    -0.145580827502E-01   -0.95833E-07    0.71902E-05 22214   0.138E-04    0.421E-06
RMM:  13    -0.145579624148E-01    0.12034E-06    0.73016E-05 21599   0.132E-04    0.153E-06
RMM:  14    -0.145580516638E-01   -0.89249E-07    0.72307E-05 22800   0.128E-04    0.940E-07
 force on displaced ion      11 direction 3 :  -0.001  -0.000  -5.212
 Born effective charge ion   11 direction 3 :  -0.000  -0.000   0.198
 Linear response progress:
  Degree of freedom:  34/144
       N       E                     dE             d eps       ncg     rms          rms(c)
RMM:   1    -0.282621019421E-01   -0.28262E-01   -0.45219E-03 23709   0.360E-01
RMM:   2    -0.124224732858E-02    0.27020E-01   -0.12281E-02 16242   0.103E-01    0.193E-01
RMM:   3    -0.678944949163E-02   -0.55472E-02   -0.78658E-03 16462   0.507E-02    0.966E-02
RMM:   4    -0.721420963754E-02   -0.42476E-03   -0.55610E-03 16695   0.251E-02    0.387E-02
RMM:   5    -0.538278734854E-02    0.18314E-02   -0.48636E-03 16493   0.128E-02    0.678E-03
RMM:   6    -0.609557550754E-02   -0.71279E-03   -0.10901E-02 17436   0.509E-03    0.263E-03
RMM:   7    -0.587032996599E-02    0.22525E-03   -0.11947E-02 16354   0.297E-03    0.194E-03
RMM:   8    -0.568417843156E-02    0.18615E-03   -0.11681E-02 19337   0.180E-03    0.707E-04
RMM:   9    -0.570180242798E-02   -0.17624E-04   -0.13024E-02 16352   0.127E-03    0.188E-04
RMM:  10    -0.573626597034E-02   -0.34464E-04   -0.13555E-02 20358   0.925E-04    0.138E-04
RMM:  11    -0.572649726085E-02    0.97687E-05   -0.13593E-02 18673   0.842E-04    0.339E-05
RMM:  12    -0.572250641887E-02    0.39908E-05   -0.13563E-02 21564   0.787E-04    0.268E-05
RMM:  13    -0.574274649321E-02   -0.20240E-04   -0.13767E-02 21351   0.764E-04    0.232E-05
RMM:  14    -0.576789585022E-02   -0.25149E-04   -0.14024E-02 21789   0.754E-04    0.967E-06
 force on displaced ion      12 direction 1 : -33.822   1.580  -0.001
 Born effective charge ion   12 direction 1 :   1.076  -0.178  -0.000
 Linear response progress:
  Degree of freedom:  35/144
       N       E                     dE             d eps       ncg     rms          rms(c)
RMM:   1    -0.152647904979E-01   -0.15265E-01   -0.64709E-03 19857   0.199E-01
RMM:   2    -0.157155476275E-01   -0.45076E-03   -0.57484E-04 15903   0.425E-02    0.961E-02
RMM:   3    -0.159613465912E-01   -0.24580E-03    0.12818E-04 16395   0.123E-02    0.582E-02
RMM:   4    -0.162620379661E-01   -0.30069E-03    0.28248E-04 14671   0.138E-02    0.548E-03
RMM:   5    -0.161607939641E-01    0.10124E-03    0.28787E-04 17297   0.412E-03    0.176E-03
RMM:   6    -0.161520907263E-01    0.87032E-05    0.40291E-04 17211   0.156E-03    0.103E-03
RMM:   7    -0.161806573789E-01   -0.28567E-04    0.24777E-04 15888   0.120E-03    0.394E-04
RMM:   8    -0.161697199016E-01    0.10937E-04    0.30207E-04 18966   0.625E-04    0.191E-04
RMM:   9    -0.161680045930E-01    0.17153E-05    0.29512E-04 16116   0.538E-04    0.812E-05
RMM:  10    -0.161653035187E-01    0.27011E-05    0.31774E-04 19396   0.400E-04    0.396E-05
RMM:  11    -0.161657635348E-01   -0.46002E-06    0.30097E-04 18293   0.357E-04    0.151E-05
RMM:  12    -0.161660115953E-01   -0.24806E-06    0.30169E-04 20624   0.335E-04    0.809E-06
RMM:  13    -0.161657523657E-01    0.25923E-06    0.30486E-04 21790   0.324E-04    0.384E-06
RMM:  14    -0.161658496478E-01   -0.97282E-07    0.30244E-04 21516   0.320E-04    0.134E-06
 force on displaced ion      12 direction 2 :   1.584  -5.703  -0.000
 Born effective charge ion   12 direction 2 :  -0.220   0.209   0.000
 Linear response progress:
  Degree of freedom:  36/144
       N       E                     dE             d eps       ncg     rms          rms(c)
RMM:   1    -0.153617213849E-01   -0.15362E-01   -0.66654E-03 19642   0.215E-01
RMM:   2    -0.143275975362E-01    0.10341E-02   -0.93591E-04 15899   0.503E-02    0.955E-02
RMM:   3    -0.143567284582E-01   -0.29131E-04   -0.69752E-05 16685   0.133E-02    0.579E-02
RMM:   4    -0.144901275272E-01   -0.13340E-03   -0.86718E-05 14325   0.154E-02    0.444E-03
RMM:   5    -0.144752937613E-01    0.14834E-04   -0.12296E-05 16621   0.457E-03    0.124E-03
RMM:   6    -0.144754458408E-01   -0.15208E-06   -0.50817E-07 16887   0.140E-03    0.759E-04
RMM:   7    -0.144730076108E-01    0.24382E-05    0.83158E-06 15198   0.996E-04    0.163E-04
RMM:   8    -0.144726085101E-01    0.39910E-06    0.11381E-05 19424   0.373E-04    0.109E-04
RMM:   9    -0.144728660501E-01   -0.25754E-06    0.11049E-05 16804   0.264E-04    0.383E-05
RMM:  10    -0.144729922035E-01   -0.12615E-06    0.10071E-05 20522   0.175E-04    0.243E-05
RMM:  11    -0.144730553443E-01   -0.63141E-07    0.97824E-06 19292   0.153E-04    0.619E-06
RMM:  12    -0.144730593299E-01   -0.39856E-08    0.98016E-06 22194   0.138E-04    0.422E-06
RMM:  13    -0.144730481872E-01    0.11143E-07    0.99387E-06 21604   0.132E-04    0.151E-06
RMM:  14    -0.144729922912E-01    0.55896E-07    0.10546E-05 22762   0.128E-04    0.949E-07
 force on displaced ion      12 direction 3 :   0.001   0.000  -5.212
 Born effective charge ion   12 direction 3 :   0.000   0.000   0.198
 Linear response progress:
  Degree of freedom:  37/144
       N       E                     dE             d eps       ncg     rms          rms(c)
RMM:   1    -0.172827761832E-01   -0.17283E-01   -0.77644E-03 20235   0.187E-01
RMM:   2    -0.117293543556E-01    0.55534E-02   -0.14336E-03 15709   0.440E-02    0.123E-01
RMM:   3    -0.139023723109E-01   -0.21730E-02   -0.41312E-04 16401   0.189E-02    0.709E-02
RMM:   4    -0.154488603407E-01   -0.15465E-02   -0.24389E-04 15133   0.172E-02    0.131E-02
RMM:   5    -0.149601390124E-01    0.48872E-03   -0.11359E-04 16862   0.726E-03    0.285E-03
RMM:   6    -0.149387401807E-01    0.21399E-04    0.65035E-06 16857   0.287E-03    0.111E-03
RMM:   7    -0.149356480258E-01    0.30922E-05   -0.41373E-06 16618   0.157E-03    0.471E-04
RMM:   8    -0.149293438843E-01    0.63041E-05    0.80742E-06 16788   0.109E-03    0.289E-04
RMM:   9    -0.149435711718E-01   -0.14227E-04   -0.38497E-05 19228   0.767E-04    0.147E-04
RMM:  10    -0.149366236147E-01    0.69476E-05   -0.26776E-05 16694   0.613E-04    0.410E-05
RMM:  11    -0.149390762391E-01   -0.24526E-05   -0.46245E-05 21394   0.508E-04    0.196E-05
RMM:  12    -0.149371235296E-01    0.19527E-05   -0.27830E-05 19522   0.475E-04    0.211E-05
RMM:  13    -0.149382223724E-01   -0.10988E-05   -0.39045E-05 22199   0.458E-04    0.504E-06
RMM:  14    -0.149349167287E-01    0.33056E-05   -0.61141E-06 23063   0.449E-04    0.423E-06
 force on displaced ion      13 direction 1 :  -6.932  -3.576  -6.972
 Born effective charge ion   13 direction 1 :   0.117   0.032   0.001
 Linear response progress:
  Degree of freedom:  38/144
       N       E                     dE             d eps       ncg     rms          rms(c)
RMM:   1    -0.189533259656E-01   -0.18953E-01   -0.99473E-03 21806   0.204E-01
RMM:   2    -0.675466139094E-02    0.12199E-01   -0.39603E-03 15120   0.549E-02    0.143E-01
RMM:   3    -0.114984407953E-01   -0.47438E-02   -0.13609E-03 17386   0.253E-02    0.788E-02
RMM:   4    -0.138182721260E-01   -0.23198E-02   -0.68015E-04 15849   0.185E-02    0.191E-02
RMM:   5    -0.131326471245E-01    0.68563E-03   -0.38159E-04 16354   0.709E-03    0.288E-03
RMM:   6    -0.131076735407E-01    0.24974E-04   -0.13545E-04 17665   0.278E-03    0.139E-03
RMM:   7    -0.131574761590E-01   -0.49803E-04   -0.19610E-04 16018   0.172E-03    0.543E-04
RMM:   8    -0.131025280128E-01    0.54948E-04   -0.11974E-04 18314   0.102E-03    0.275E-04
RMM:   9    -0.131108243766E-01   -0.82964E-05   -0.28962E-04 15973   0.809E-04    0.165E-04
RMM:  10    -0.130942798743E-01    0.16545E-04   -0.64551E-05 19983   0.638E-04    0.498E-05
RMM:  11    -0.131063227517E-01   -0.12043E-04   -0.19601E-04 18190   0.563E-04    0.263E-05
RMM:  12    -0.130944799767E-01    0.11843E-04   -0.93830E-05 20766   0.524E-04    0.158E-05
RMM:  13    -0.131081119267E-01   -0.13632E-04   -0.23191E-04 22201   0.506E-04    0.860E-06
RMM:  14    -0.130890809792E-01    0.19031E-04   -0.43364E-05 22427   0.496E-04    0.678E-06
 force on displaced ion      13 direction 2 :  -3.576 -11.637 -11.127
 Born effective charge ion   13 direction 2 :   0.028   0.089  -0.001
 Linear response progress:
  Degree of freedom:  39/144
       N       E                     dE             d eps       ncg     rms          rms(c)
RMM:   1    -0.224919970193E-01   -0.22492E-01   -0.66718E-03 22531   0.250E-01
RMM:   2     0.644611923251E-02    0.28938E-01   -0.14798E-02 14999   0.751E-02    0.180E-01
RMM:   3    -0.557297882232E-02   -0.12019E-01   -0.57054E-03 17628   0.353E-02    0.942E-02
RMM:   4    -0.105972178206E-01   -0.50242E-02   -0.25551E-03 16200   0.233E-02    0.311E-02
RMM:   5    -0.947476435341E-02    0.11225E-02   -0.50847E-03 15948   0.111E-02    0.509E-03
RMM:   6    -0.939074329164E-02    0.84021E-04   -0.11655E-03 17133   0.464E-03    0.167E-03
RMM:   7    -0.950256993565E-02   -0.11183E-03   -0.16250E-03 16943   0.247E-03    0.944E-04
RMM:   8    -0.942921947572E-02    0.73350E-04   -0.22625E-03 16404   0.174E-03    0.873E-04
RMM:   9    -0.949952392372E-02   -0.70304E-04   -0.23967E-03 18701   0.119E-03    0.211E-04
RMM:  10    -0.953043340256E-02   -0.30909E-04   -0.26833E-03 17510   0.977E-04    0.192E-04
RMM:  11    -0.952591966514E-02    0.45137E-05   -0.27404E-03 20089   0.834E-04    0.768E-05
RMM:  12    -0.951765524356E-02    0.82644E-05   -0.27252E-03 19572   0.770E-04    0.226E-05
RMM:  13    -0.951620164543E-02    0.14536E-05   -0.27280E-03 21940   0.735E-04    0.250E-05
RMM:  14    -0.951692234524E-02   -0.72070E-06   -0.27303E-03 23044   0.722E-04    0.203E-05
 force on displaced ion      13 direction 3 :  -6.972 -11.127 -23.204
 Born effective charge ion   13 direction 3 :   0.047  -0.027   0.132
 Linear response progress:
  Degree of freedom:  40/144
       N       E                     dE             d eps       ncg     rms          rms(c)
RMM:   1    -0.172727744235E-01   -0.17273E-01   -0.76863E-03 20305   0.187E-01
RMM:   2    -0.191604549392E-01   -0.18877E-02   -0.43734E-04 15698   0.439E-02    0.123E-01
RMM:   3    -0.177737133349E-01    0.13867E-02    0.10955E-05 16430   0.189E-02    0.709E-02
RMM:   4    -0.170882328179E-01    0.68548E-03   -0.13607E-04 15067   0.171E-02    0.131E-02
RMM:   5    -0.174589954311E-01   -0.37076E-03    0.12421E-05 16800   0.720E-03    0.285E-03
RMM:   6    -0.174888921173E-01   -0.29897E-04    0.14763E-06 16782   0.280E-03    0.110E-03
RMM:   7    -0.174854000110E-01    0.34921E-05    0.53298E-05 16627   0.149E-03    0.477E-04
RMM:   8    -0.174881582174E-01   -0.27582E-05    0.34767E-05 16599   0.102E-03    0.283E-04
[...]
RMM:  10    -0.897188569025E-01    0.35355E-05   -0.79621E-04 19865   0.434E-04    0.538E-05
RMM:  11    -0.897212870565E-01   -0.24302E-05   -0.82110E-04 21422   0.372E-04    0.369E-05
RMM:  12    -0.897199916877E-01    0.12954E-05   -0.80783E-04 20833   0.338E-04    0.109E-05
RMM:  13    -0.897205446881E-01   -0.55300E-06   -0.81406E-04 22211   0.337E-04    0.447E-06
RMM:  14    -0.897184011451E-01    0.21435E-05   -0.79295E-04 22062   0.322E-04    0.312E-06
 force on displaced ion      44 direction 3 :   0.277   0.090  -0.959
 Born effective charge ion   44 direction 3 :   0.105   0.014  -0.799
 Linear response progress:
  Degree of freedom: 133/144
       N       E                     dE             d eps       ncg     rms          rms(c)
RMM:   1    -0.241016377691E+00   -0.24102E+00    0.35862E-01 19447   0.848E-01
RMM:   2    -0.237007511013E+00    0.40089E-02   -0.88011E-03 16113   0.160E-01    0.246E-01
RMM:   3    -0.237687781526E+00   -0.68027E-03   -0.15035E-03 16481   0.499E-02    0.132E-01
RMM:   4    -0.238384957244E+00   -0.69718E-03   -0.12130E-03 15811   0.450E-02    0.206E-02
RMM:   5    -0.237553467717E+00    0.83149E-03    0.59292E-05 17281   0.149E-02    0.663E-03
RMM:   6    -0.237574662935E+00   -0.21195E-04    0.73577E-05 17266   0.489E-03    0.258E-03
RMM:   7    -0.237697031536E+00   -0.12237E-03    0.11216E-04 16684   0.256E-03    0.847E-04
RMM:   8    -0.237695734242E+00    0.12973E-05   -0.29654E-05 18162   0.156E-03    0.403E-04
RMM:   9    -0.237674640366E+00    0.21094E-04    0.48099E-06 18131   0.108E-03    0.162E-04
RMM:  10    -0.237683931416E+00   -0.92910E-05    0.41396E-05 19816   0.859E-04    0.812E-05
RMM:  11    -0.237679547233E+00    0.43842E-05    0.41420E-05 20780   0.725E-04    0.404E-05
RMM:  12    -0.237675894645E+00    0.36526E-05    0.57005E-05 20806   0.677E-04    0.297E-05
RMM:  13    -0.237679031684E+00   -0.31370E-05    0.51064E-05 22593   0.645E-04    0.129E-05
RMM:  14    -0.237678353695E+00    0.67799E-06    0.58129E-05 22591   0.626E-04    0.149E-05
 force on displaced ion      45 direction 1 : -59.284  -5.709  -0.005
 Born effective charge ion   45 direction 1 :  -0.920  -0.111   0.000
 Linear response progress:
  Degree of freedom: 134/144
       N       E                     dE             d eps       ncg     rms          rms(c)
RMM:   1    -0.235978365392E+00   -0.23598E+00    0.40378E-01 20203   0.845E-01
RMM:   2    -0.255516970560E+00   -0.19539E-01   -0.91062E-03 16063   0.154E-01    0.235E-01
RMM:   3    -0.248176116696E+00    0.73409E-02    0.73603E-04 17026   0.524E-02    0.129E-01
RMM:   4    -0.245706424766E+00    0.24697E-02    0.68392E-04 16387   0.436E-02    0.271E-02
RMM:   5    -0.247729265129E+00   -0.20228E-02   -0.12228E-04 17257   0.154E-02    0.757E-03
RMM:   6    -0.247872408312E+00   -0.14314E-03   -0.59158E-05 17061   0.592E-03    0.316E-03
RMM:   7    -0.247452667762E+00    0.41974E-03    0.50570E-05 16649   0.335E-03    0.105E-03
RMM:   8    -0.247509866068E+00   -0.57198E-04   -0.12790E-04 17889   0.198E-03    0.498E-04
RMM:   9    -0.247513504563E+00   -0.36385E-05   -0.12753E-04 16591   0.144E-03    0.352E-04
RMM:  10    -0.247458190061E+00    0.55315E-04   -0.47017E-05 19748   0.114E-03    0.783E-05
RMM:  11    -0.247460143392E+00   -0.19533E-05   -0.13552E-04 20388   0.972E-04    0.460E-05
RMM:  12    -0.247459667789E+00    0.47560E-06   -0.14611E-04 21773   0.907E-04    0.198E-05
RMM:  13    -0.247457563660E+00    0.21041E-05   -0.13960E-04 22234   0.882E-04    0.819E-06
RMM:  14    -0.247461092937E+00   -0.35293E-05   -0.17502E-04 22592   0.870E-04    0.266E-06
 force on displaced ion      45 direction 2 :  -5.698 -49.466  -0.000
 Born effective charge ion   45 direction 2 :  -0.228  -0.535   0.000
 Linear response progress:
  Degree of freedom: 135/144
       N       E                     dE             d eps       ncg     rms          rms(c)
RMM:   1    -0.247091509847E+00   -0.24709E+00    0.32195E-01 19330   0.857E-01
RMM:   2    -0.238644914340E+00    0.84466E-02   -0.81533E-03 16268   0.182E-01    0.249E-01
RMM:   3    -0.238017376064E+00    0.62754E-03    0.33590E-04 16304   0.554E-02    0.133E-01
RMM:   4    -0.238480084840E+00   -0.46271E-03    0.23506E-04 16507   0.509E-02    0.190E-02
RMM:   5    -0.238540957410E+00   -0.60873E-04    0.17347E-04 17114   0.159E-02    0.574E-03
RMM:   6    -0.238570487457E+00   -0.29530E-04    0.18706E-04 17129   0.491E-03    0.175E-03
RMM:   7    -0.238570148676E+00    0.33878E-06    0.18882E-04 16244   0.233E-03    0.411E-04
RMM:   8    -0.238569850000E+00    0.29868E-06    0.19140E-04 19334   0.128E-03    0.287E-04
RMM:   9    -0.238570963448E+00   -0.11134E-05    0.19313E-04 17342   0.851E-04    0.734E-05
RMM:  10    -0.238571084227E+00   -0.12078E-06    0.19447E-04 21223   0.635E-04    0.581E-05
RMM:  11    -0.238571274679E+00   -0.19045E-06    0.19387E-04 20115   0.539E-04    0.207E-05
RMM:  12    -0.238571341988E+00   -0.67310E-07    0.19352E-04 22594   0.488E-04    0.155E-05
RMM:  13    -0.238571400720E+00   -0.58732E-07    0.19277E-04 22445   0.459E-04    0.931E-06
RMM:  14    -0.238571457112E+00   -0.56392E-07    0.19224E-04 22986   0.440E-04    0.328E-06
RMM:  15    -0.238571434144E+00    0.22968E-07    0.19248E-04 22798   0.433E-04    0.464E-06
 force on displaced ion      45 direction 3 :   0.004  -0.001 -61.975
 Born effective charge ion   45 direction 3 :  -0.000  -0.000  -0.746
 Linear response progress:
  Degree of freedom: 136/144
       N       E                     dE             d eps       ncg     rms          rms(c)
RMM:   1    -0.241064014704E+00   -0.24106E+00    0.35878E-01 19431   0.852E-01
RMM:   2    -0.237536961920E+00    0.35271E-02   -0.79540E-03 16099   0.160E-01    0.246E-01
RMM:   3    -0.236407743000E+00    0.11292E-02   -0.13646E-03 16450   0.499E-02    0.132E-01
RMM:   4    -0.236680173293E+00   -0.27243E-03   -0.14288E-03 15798   0.450E-02    0.207E-02
RMM:   5    -0.237260639046E+00   -0.58047E-03   -0.21946E-04 17301   0.149E-02    0.657E-03
RMM:   6    -0.237222153577E+00    0.38485E-04   -0.50207E-05 17300   0.486E-03    0.258E-03
RMM:   7    -0.237105594682E+00    0.11656E-03    0.16633E-05 16729   0.253E-03    0.836E-04
RMM:   8    -0.237130321068E+00   -0.24726E-04   -0.11831E-04 18279   0.152E-03    0.406E-04
RMM:   9    -0.237144228223E+00   -0.13907E-04   -0.91446E-05 17948   0.105E-03    0.164E-04
RMM:  10    -0.237130563934E+00    0.13664E-04   -0.75205E-05 19802   0.825E-04    0.863E-05
RMM:  11    -0.237135229419E+00   -0.46655E-05   -0.81025E-05 20475   0.691E-04    0.396E-05
RMM:  12    -0.237135611022E+00   -0.38160E-06   -0.67330E-05 21253   0.639E-04    0.307E-05
RMM:  13    -0.237134718829E+00    0.89219E-06   -0.82869E-05 22583   0.606E-04    0.134E-05
RMM:  14    -0.237133726554E+00    0.99228E-06   -0.72833E-05 22759   0.587E-04    0.162E-05
 force on displaced ion      46 direction 1 : -59.285  -5.704   0.004
 Born effective charge ion   46 direction 1 :  -0.920  -0.111  -0.000
 Linear response progress:
  Degree of freedom: 137/144
       N       E                     dE             d eps       ncg     rms          rms(c)
RMM:   1    -0.236028105001E+00   -0.23603E+00    0.40355E-01 20221   0.848E-01
RMM:   2    -0.215095030775E+00    0.20933E-01   -0.74441E-03 16041   0.154E-01    0.235E-01
RMM:   3    -0.221844518630E+00   -0.67495E-02   -0.35976E-03 16999   0.524E-02    0.129E-01
RMM:   4    -0.224956875473E+00   -0.31124E-02   -0.29322E-03 16399   0.436E-02    0.271E-02
RMM:   5    -0.222886844098E+00    0.20700E-02   -0.44484E-04 17258   0.154E-02    0.761E-03
RMM:   6    -0.222709596211E+00    0.17725E-03   -0.72201E-05 17180   0.596E-03    0.323E-03
RMM:   7    -0.223147654314E+00   -0.43806E-03    0.49892E-05 16720   0.334E-03    0.110E-03
RMM:   8    -0.223099349642E+00    0.48305E-04   -0.15474E-05 17706   0.198E-03    0.496E-04
RMM:   9    -0.223095440451E+00    0.39092E-05   -0.75038E-05 16724   0.143E-03    0.364E-04
RMM:  10    -0.223149638835E+00   -0.54198E-04   -0.53311E-05 19614   0.113E-03    0.787E-05
RMM:  11    -0.223155736479E+00   -0.60976E-05   -0.26692E-05 20491   0.950E-04    0.404E-05
RMM:  12    -0.223160112027E+00   -0.43755E-05   -0.51908E-05 21581   0.884E-04    0.162E-05
RMM:  13    -0.223159794651E+00    0.31738E-06   -0.37457E-05 22616   0.857E-04    0.867E-06
RMM:  14    -0.223159792143E+00    0.25083E-08   -0.38944E-05 22526   0.845E-04    0.293E-06
 force on displaced ion      46 direction 2 :  -5.701 -49.456  -0.000
 Born effective charge ion   46 direction 2 :  -0.228  -0.535   0.000
 Linear response progress:
  Degree of freedom: 138/144
       N       E                     dE             d eps       ncg     rms          rms(c)
RMM:   1    -0.247023206775E+00   -0.24702E+00    0.32263E-01 19348   0.860E-01
RMM:   2    -0.237882224943E+00    0.91410E-02   -0.78484E-03 16269   0.181E-01    0.249E-01
RMM:   3    -0.237369723097E+00    0.51250E-03    0.25674E-04 16273   0.551E-02    0.133E-01
RMM:   4    -0.237905341544E+00   -0.53562E-03    0.99823E-05 16515   0.506E-02    0.190E-02
RMM:   5    -0.237950157856E+00   -0.44816E-04    0.15054E-04 17119   0.159E-02    0.575E-03
RMM:   6    -0.237981411951E+00   -0.31254E-04    0.16383E-04 17118   0.490E-03    0.175E-03
RMM:   7    -0.237977826360E+00    0.35856E-05    0.18486E-04 16267   0.232E-03    0.411E-04
RMM:   8    -0.237976364932E+00    0.14614E-05    0.19680E-04 19295   0.128E-03    0.287E-04
RMM:   9    -0.237978711857E+00   -0.23469E-05    0.18544E-04 17410   0.844E-04    0.741E-05
RMM:  10    -0.237978983782E+00   -0.27193E-06    0.18560E-04 21161   0.629E-04    0.580E-05
RMM:  11    -0.237979469400E+00   -0.48562E-06    0.18240E-04 20062   0.533E-04    0.206E-05
RMM:  12    -0.237979644919E+00   -0.17552E-06    0.18082E-04 22569   0.481E-04    0.155E-05
RMM:  13    -0.237979686135E+00   -0.41216E-07    0.18023E-04 22452   0.451E-04    0.926E-06
RMM:  14    -0.237979820414E+00   -0.13428E-06    0.17927E-04 22929   0.432E-04    0.337E-06
RMM:  15    -0.237979784002E+00    0.36412E-07    0.17950E-04 22766   0.425E-04    0.476E-06
 force on displaced ion      46 direction 3 :  -0.004   0.001 -61.975
 Born effective charge ion   46 direction 3 :   0.000   0.000  -0.746
 Linear response progress:
  Degree of freedom: 139/144
       N       E                     dE             d eps       ncg     rms          rms(c)
RMM:   1    -0.241033345886E+00   -0.24103E+00    0.35862E-01 19407   0.849E-01
RMM:   2    -0.237413331275E+00    0.36200E-02   -0.78557E-03 16104   0.160E-01    0.246E-01
RMM:   3    -0.236304301378E+00    0.11090E-02   -0.13197E-03 16445   0.499E-02    0.132E-01
RMM:   4    -0.236586996609E+00   -0.28270E-03   -0.13974E-03 15816   0.450E-02    0.207E-02
RMM:   5    -0.237171649162E+00   -0.58465E-03   -0.22664E-04 17301   0.149E-02    0.659E-03
RMM:   6    -0.237131829925E+00    0.39819E-04   -0.41821E-05 17304   0.486E-03    0.259E-03
RMM:   7    -0.237014605457E+00    0.11722E-03    0.21950E-05 16740   0.254E-03    0.839E-04
RMM:   8    -0.237039723856E+00   -0.25118E-04   -0.11691E-04 18261   0.152E-03    0.409E-04
RMM:   9    -0.237054574968E+00   -0.14851E-04   -0.93734E-05 17919   0.106E-03    0.166E-04
RMM:  10    -0.237040532659E+00    0.14042E-04   -0.76473E-05 19859   0.829E-04    0.876E-05
RMM:  11    -0.237044803518E+00   -0.42709E-05   -0.78912E-05 20404   0.694E-04    0.396E-05
RMM:  12    -0.237045966762E+00   -0.11632E-05   -0.71734E-05 21220   0.641E-04    0.310E-05
RMM:  13    -0.237045378009E+00    0.58875E-06   -0.90930E-05 22553   0.609E-04    0.135E-05
RMM:  14    -0.237044675684E+00    0.70232E-06   -0.83996E-05 22715   0.589E-04    0.165E-05
 force on displaced ion      47 direction 1 : -59.285   5.704   0.005
 Born effective charge ion   47 direction 1 :  -0.920   0.111  -0.000
 Linear response progress:
  Degree of freedom: 140/144
       N       E                     dE             d eps       ncg     rms          rms(c)
RMM:   1    -0.235989820266E+00   -0.23599E+00    0.40377E-01 20195   0.847E-01
RMM:   2    -0.255482224928E+00   -0.19492E-01   -0.90371E-03 16044   0.154E-01    0.235E-01
RMM:   3    -0.248153695062E+00    0.73285E-02    0.72782E-04 17030   0.525E-02    0.129E-01
RMM:   4    -0.245687809208E+00    0.24659E-02    0.66139E-04 16408   0.436E-02    0.272E-02
RMM:   5    -0.247707020149E+00   -0.20192E-02   -0.11258E-04 17243   0.154E-02    0.757E-03
RMM:   6    -0.247851228346E+00   -0.14421E-03   -0.52927E-05 17112   0.593E-03    0.316E-03
RMM:   7    -0.247431575800E+00    0.41965E-03    0.52779E-05 16645   0.335E-03    0.105E-03
RMM:   8    -0.247488995060E+00   -0.57419E-04   -0.12580E-04 17875   0.198E-03    0.498E-04
RMM:   9    -0.247493150681E+00   -0.41556E-05   -0.12581E-04 16625   0.144E-03    0.356E-04
RMM:  10    -0.247437304348E+00    0.55846E-04   -0.45704E-05 19714   0.114E-03    0.786E-05
RMM:  11    -0.247438958876E+00   -0.16545E-05   -0.13394E-04 20336   0.972E-04    0.465E-05
RMM:  12    -0.247438884259E+00    0.74617E-07   -0.14642E-04 21743   0.907E-04    0.194E-05
RMM:  13    -0.247436448969E+00    0.24353E-05   -0.13793E-04 22179   0.882E-04    0.833E-06
RMM:  14    -0.247440166758E+00   -0.37178E-05   -0.17455E-04 22479   0.870E-04    0.263E-06
 force on displaced ion      47 direction 2 :   5.698 -49.466  -0.000
 Born effective charge ion   47 direction 2 :   0.228  -0.535   0.000
 Linear response progress:
  Degree of freedom: 141/144
       N       E                     dE             d eps       ncg     rms          rms(c)
RMM:   1    -0.247091914173E+00   -0.24709E+00    0.32195E-01 19320   0.858E-01
RMM:   2    -0.237890752213E+00    0.92012E-02   -0.81779E-03 16259   0.181E-01    0.249E-01
RMM:   3    -0.237358331917E+00    0.53242E-03    0.16877E-04 16291   0.552E-02    0.133E-01
RMM:   4    -0.237892611378E+00   -0.53428E-03    0.63157E-05 16515   0.507E-02    0.190E-02
RMM:   5    -0.237932423727E+00   -0.39812E-04    0.16216E-04 17137   0.159E-02    0.575E-03
RMM:   6    -0.237964162061E+00   -0.31738E-04    0.16927E-04 17093   0.489E-03    0.175E-03
RMM:   7    -0.237960588117E+00    0.35739E-05    0.18982E-04 16256   0.233E-03    0.411E-04
RMM:   8    -0.237959300122E+00    0.12880E-05    0.19998E-04 19288   0.128E-03    0.287E-04
RMM:   9    -0.237961861737E+00   -0.25616E-05    0.18664E-04 17350   0.841E-04    0.741E-05
RMM:  10    -0.237962050955E+00   -0.18922E-06    0.18769E-04 21239   0.625E-04    0.584E-05
RMM:  11    -0.237962538839E+00   -0.48788E-06    0.18440E-04 20058   0.529E-04    0.211E-05
RMM:  12    -0.237962695631E+00   -0.15679E-06    0.18319E-04 22613   0.476E-04    0.155E-05
RMM:  13    -0.237962693637E+00    0.19939E-08    0.18301E-04 22536   0.448E-04    0.917E-06
RMM:  14    -0.237962767355E+00   -0.73719E-07    0.18251E-04 23033   0.428E-04    0.353E-06
RMM:  15    -0.237962753593E+00    0.13762E-07    0.18251E-04 22868   0.421E-04    0.434E-06
 force on displaced ion      47 direction 3 :  -0.004  -0.001 -61.975
 Born effective charge ion   47 direction 3 :   0.000  -0.000  -0.746
 Linear response progress:
  Degree of freedom: 142/144
       N       E                     dE             d eps       ncg     rms          rms(c)
RMM:   1    -0.241065840898E+00   -0.24107E+00    0.35861E-01 19468   0.851E-01
RMM:   2    -0.236900302659E+00    0.41655E-02   -0.88987E-03 16112   0.160E-01    0.246E-01
RMM:   3    -0.237596414942E+00   -0.69611E-03   -0.15870E-03 16477   0.499E-02    0.132E-01
RMM:   4    -0.238300530777E+00   -0.70412E-03   -0.12786E-03 15795   0.450E-02    0.206E-02
RMM:   5    -0.237462079953E+00    0.83845E-03    0.68081E-05 17280   0.149E-02    0.661E-03
RMM:   6    -0.237482906222E+00   -0.20826E-04    0.89946E-05 17263   0.488E-03    0.257E-03
RMM:   7    -0.237606201932E+00   -0.12330E-03    0.10422E-04 16678   0.255E-03    0.845E-04
RMM:   8    -0.237604756222E+00    0.14457E-05   -0.35662E-05 18159   0.155E-03    0.400E-04
RMM:   9    -0.237583926002E+00    0.20830E-04    0.18729E-06 18173   0.108E-03    0.160E-04
RMM:  10    -0.237592781569E+00   -0.88556E-05    0.38251E-05 19800   0.859E-04    0.792E-05
RMM:  11    -0.237588350805E+00    0.44308E-05    0.38625E-05 20882   0.726E-04    0.399E-05
RMM:  12    -0.237584627010E+00    0.37238E-05    0.57418E-05 20808   0.678E-04    0.291E-05
RMM:  13    -0.237588047475E+00   -0.34205E-05    0.47917E-05 22646   0.646E-04    0.131E-05
RMM:  14    -0.237587223031E+00    0.82444E-06    0.56285E-05 22701   0.628E-04    0.151E-05
 force on displaced ion      48 direction 1 : -59.284   5.709  -0.004
 Born effective charge ion   48 direction 1 :  -0.920   0.111   0.000
 Linear response progress:
  Degree of freedom: 143/144
       N       E                     dE             d eps       ncg     rms          rms(c)
RMM:   1    -0.236019752898E+00   -0.23602E+00    0.40355E-01 20193   0.847E-01
RMM:   2    -0.215116437181E+00    0.20903E-01   -0.75547E-03 16055   0.154E-01    0.235E-01
RMM:   3    -0.221850707532E+00   -0.67343E-02   -0.35934E-03 17018   0.524E-02    0.129E-01
RMM:   4    -0.224960011401E+00   -0.31093E-02   -0.29021E-03 16375   0.436E-02    0.271E-02
RMM:   5    -0.222896224141E+00    0.20638E-02   -0.45264E-04 17265   0.154E-02    0.760E-03
RMM:   6    -0.222718989838E+00    0.17723E-03   -0.78627E-05 17119   0.596E-03    0.323E-03
RMM:   7    -0.223156113236E+00   -0.43712E-03    0.49809E-05 16704   0.334E-03    0.110E-03
RMM:   8    -0.223107568839E+00    0.48544E-04   -0.14961E-05 17681   0.198E-03    0.497E-04
RMM:   9    -0.223103288515E+00    0.42803E-05   -0.74802E-05 16694   0.143E-03    0.368E-04
RMM:  10    -0.223157123654E+00   -0.53835E-04   -0.49234E-05 19623   0.113E-03    0.796E-05
RMM:  11    -0.223163812407E+00   -0.66888E-05   -0.25356E-05 20511   0.949E-04    0.413E-05
RMM:  12    -0.223167310732E+00   -0.34983E-05   -0.44442E-05 21646   0.882E-04    0.161E-05
RMM:  13    -0.223167640497E+00   -0.32977E-06   -0.35179E-05 22631   0.856E-04    0.875E-06
RMM:  14    -0.223167067797E+00    0.57270E-06   -0.30908E-05 22510   0.843E-04    0.272E-06
 force on displaced ion      48 direction 2 :   5.701 -49.456   0.000
 Born effective charge ion   48 direction 2 :   0.228  -0.535  -0.000
 Linear response progress:
  Degree of freedom: 144/144
       N       E                     dE             d eps       ncg     rms          rms(c)
RMM:   1    -0.247027647920E+00   -0.24703E+00    0.32259E-01 19352   0.859E-01
RMM:   2    -0.238718590509E+00    0.83091E-02   -0.78409E-03 16252   0.183E-01    0.249E-01
RMM:   3    -0.238098697051E+00    0.61989E-03    0.43283E-04 16282   0.556E-02    0.133E-01
RMM:   4    -0.238554053660E+00   -0.45536E-03    0.27431E-04 16540   0.511E-02    0.190E-02
RMM:   5    -0.238621270415E+00   -0.67217E-04    0.16385E-04 17124   0.159E-02    0.571E-03
RMM:   6    -0.238650309353E+00   -0.29039E-04    0.17908E-04 17145   0.490E-03    0.175E-03
RMM:   7    -0.238650638129E+00   -0.32878E-06    0.17537E-04 16272   0.233E-03    0.409E-04
RMM:   8    -0.238650080935E+00    0.55719E-06    0.18101E-04 19315   0.128E-03    0.286E-04
RMM:   9    -0.238651227746E+00   -0.11468E-05    0.18216E-04 17396   0.849E-04    0.739E-05
RMM:  10    -0.238651318236E+00   -0.90490E-07    0.18409E-04 21261   0.634E-04    0.583E-05
RMM:  11    -0.238651515808E+00   -0.19757E-06    0.18332E-04 20213   0.538E-04    0.211E-05
RMM:  12    -0.238651568397E+00   -0.52589E-07    0.18312E-04 22701   0.486E-04    0.155E-05
RMM:  13    -0.238651537732E+00    0.30665E-07    0.18303E-04 22559   0.457E-04    0.906E-06
RMM:  14    -0.238651604099E+00   -0.66367E-07    0.18261E-04 23077   0.438E-04    0.340E-06
RMM:  15    -0.238651623933E+00   -0.19833E-07    0.18234E-04 22903   0.431E-04    0.448E-06
 force on displaced ion      48 direction 3 :   0.004   0.001 -61.975
 Born effective charge ion   48 direction 3 :  -0.000   0.000  -0.746
 Born effective charges drift removed
 Linear response finished
