<?xml version="1.0" encoding="ISO-8859-1"?>
<modeling>
 <generator>
  <i name="program" type="string">vasp </i>
  <i name="version" type="string">5.4.4.18Apr17-6-g9f103f2a35  </i>
  <i name="subversion" type="string">(build Aug 24 2017 11:22:49) complex            parallel </i>
  <i name="platform" type="string">LinuxIFC </i>
  <i name="date" type="string">2023 12 25 </i>
  <i name="time" type="string">13:07:56 </i>
 </generator>
 <incar>
  <i type="string" name="PREC">accurate</i>
  <i type="string" name="ALGO"> Normal</i>
  <i type="int" name="NELM">   100</i>
  <i type="int" name="IBRION">     8</i>
  <i name="EDIFF">      0.00000001</i>
  <i name="SYMPREC">      0.00000001</i>
  <i name="ENCUT">    520.00000000</i>
  <i type="logical" name="LREAL"> F  </i>
  <i type="int" name="ISMEAR">     0</i>
  <i name="SIGMA">      0.01000000</i>
  <i type="logical" name="LWAVE"> F  </i>
  <v type="int" name="KPOINT_BSE">    -1     0     0     0</v>
  <i type="int" name="NELM">   100</i>
  <i type="logical" name="LPEAD"> T  </i>
  <i type="logical" name="LEPSILON"> T  </i>
 </incar>
 <structure name="primitive_cell" >
  <crystal>
   <varray name="basis" >
    <v>       8.55672534       0.00000000       0.00000000 </v>
    <v>       0.00000000       9.25045929       0.00000000 </v>
    <v>       0.00000000       0.00000000      12.96364900 </v>
   </varray>
   <i name="volume">   1026.11999904 </i>
   <varray name="rec_basis" >
    <v>       0.11686714       0.00000000       0.00000000 </v>
    <v>       0.00000000       0.10810274       0.00000000 </v>
    <v>       0.00000000       0.00000000       0.07713877 </v>
   </varray>
  </crystal>
  <varray name="positions" >
   <v>       0.49426404       0.14297401      -0.31462395 </v>
   <v>       0.45960904       0.08486301      -0.24999994 </v>
   <v>       0.49426404       0.14297401      -0.18537594 </v>
   <v>       0.33805903       0.07863201      -0.24999994 </v>
   <v>      -0.46764496      -0.06216193      -0.24999994 </v>
   <v>      -0.34015195      -0.05033693      -0.24999994 </v>
   <v>       0.49477504      -0.12011093      -0.31923895 </v>
   <v>      -0.31606595       0.19283901      -0.47785296 </v>
   <v>       0.49477504      -0.12011093      -0.18076094 </v>
   <v>      -0.46226696      -0.48740396      -0.24999994 </v>
   <v>       0.18393401       0.30716102      -0.47785296 </v>
   <v>      -0.16194094       0.42136803      -0.24999994 </v>
   <v>      -0.49999996      -0.49999996      -0.49999996 </v>
   <v>      -0.31606595       0.19283901      -0.02214692 </v>
   <v>       0.03773300      -0.01259592      -0.24999994 </v>
   <v>       0.31606602      -0.19283894       0.47785304 </v>
   <v>      -0.00573592       0.35702603      -0.31462395 </v>
   <v>      -0.49477496       0.12011101       0.31923902 </v>
   <v>      -0.04039093       0.41513703      -0.24999994 </v>
   <v>       0.15984801      -0.44966296      -0.24999994 </v>
   <v>       0.18393401       0.30716102      -0.02214692 </v>
   <v>      -0.00573592       0.35702603      -0.18537594 </v>
   <v>       0.00000000       0.00000000      -0.49999996 </v>
   <v>      -0.49999996      -0.49999996       0.00000000 </v>
   <v>      -0.49426396      -0.14297393       0.31462402 </v>
   <v>       0.31606602      -0.19283894       0.02214700 </v>
   <v>       0.03235500      -0.43783796      -0.24999994 </v>
   <v>      -0.18393394      -0.30716095       0.47785304 </v>
   <v>       0.46764504       0.06216200       0.25000002 </v>
   <v>       0.34015203       0.05033700       0.25000002 </v>
   <v>       0.00000000       0.00000000       0.00000000 </v>
   <v>      -0.45960896      -0.08486293       0.25000002 </v>
   <v>      -0.00522492      -0.37988895      -0.31923895 </v>
   <v>      -0.33805895      -0.07863193       0.25000002 </v>
   <v>      -0.00522492      -0.37988895      -0.18076094 </v>
   <v>      -0.49477496       0.12011101       0.18076101 </v>
   <v>       0.46226704       0.48740404       0.25000002 </v>
   <v>      -0.18393394      -0.30716095       0.02214700 </v>
   <v>       0.00522500       0.37988903       0.31923902 </v>
   <v>      -0.15984794       0.44966303       0.25000002 </v>
   <v>      -0.49426396      -0.14297393       0.18537601 </v>
   <v>      -0.03773293       0.01259600       0.25000002 </v>
   <v>      -0.03235493       0.43783803       0.25000002 </v>
   <v>       0.16194101      -0.42136796       0.25000002 </v>
   <v>       0.00573600      -0.35702595       0.31462402 </v>
   <v>       0.00522500       0.37988903       0.18076101 </v>
   <v>       0.04039100      -0.41513696       0.25000002 </v>
   <v>       0.00573600      -0.35702595       0.18537601 </v>
  </varray>
 </structure>
 <varray name="primitive_index" >
  <v type="int" >        1 </v>
  <v type="int" >       45 </v>
  <v type="int" >        6 </v>
  <v type="int" >        9 </v>
  <v type="int" >       29 </v>
  <v type="int" >       21 </v>
  <v type="int" >       13 </v>
  <v type="int" >       44 </v>
  <v type="int" >       18 </v>
  <v type="int" >       33 </v>
  <v type="int" >       41 </v>
  <v type="int" >       12 </v>
  <v type="int" >       27 </v>
  <v type="int" >       39 </v>
  <v type="int" >       36 </v>
  <v type="int" >       43 </v>
  <v type="int" >        4 </v>
  <v type="int" >       14 </v>
  <v type="int" >       48 </v>
  <v type="int" >       24 </v>
  <v type="int" >       38 </v>
  <v type="int" >        7 </v>
  <v type="int" >       28 </v>
  <v type="int" >       25 </v>
  <v type="int" >        2 </v>
  <v type="int" >       40 </v>
  <v type="int" >       32 </v>
  <v type="int" >       42 </v>
  <v type="int" >       30 </v>
  <v type="int" >       22 </v>
  <v type="int" >       26 </v>
  <v type="int" >       46 </v>
  <v type="int" >       16 </v>
  <v type="int" >       10 </v>
  <v type="int" >       19 </v>
  <v type="int" >       17 </v>
  <v type="int" >       34 </v>
  <v type="int" >       37 </v>
  <v type="int" >       15 </v>
  <v type="int" >       23 </v>
  <v type="int" >        5 </v>
  <v type="int" >       35 </v>
  <v type="int" >       31 </v>
  <v type="int" >       11 </v>
  <v type="int" >        3 </v>
  <v type="int" >       20 </v>
  <v type="int" >       47 </v>
  <v type="int" >        8 </v>
 </varray>
 <kpoints>
  <generation param="Gamma">
   <v type="int" name="divisions">       4        4        4 </v>
   <v name="usershift">      0.00000000       0.00000000       0.00000000 </v>
   <v name="genvec1">      0.25000000       0.00000000       0.00000000 </v>
   <v name="genvec2">      0.00000000       0.25000000       0.00000000 </v>
   <v name="genvec3">      0.00000000       0.00000000       0.25000000 </v>
   <v name="shift">      0.00000000       0.00000000       0.00000000 </v>
  </generation>
  <varray name="kpointlist" >
   <v>       0.00000000       0.00000000       0.00000000 </v>
   <v>       0.25000000       0.00000000       0.00000000 </v>
   <v>       0.50000000       0.00000000       0.00000000 </v>
   <v>       0.00000000       0.25000000       0.00000000 </v>
   <v>       0.25000000       0.25000000       0.00000000 </v>
   <v>       0.50000000       0.25000000       0.00000000 </v>
   <v>      -0.25000000       0.25000000       0.00000000 </v>
   <v>       0.00000000       0.50000000       0.00000000 </v>
   <v>       0.25000000       0.50000000       0.00000000 </v>
   <v>       0.50000000       0.50000000       0.00000000 </v>
   <v>       0.00000000       0.00000000       0.25000000 </v>
   <v>       0.25000000       0.00000000       0.25000000 </v>
   <v>       0.50000000       0.00000000       0.25000000 </v>
   <v>      -0.25000000       0.00000000       0.25000000 </v>
   <v>       0.00000000       0.25000000       0.25000000 </v>
   <v>       0.25000000       0.25000000       0.25000000 </v>
   <v>       0.50000000       0.25000000       0.25000000 </v>
   <v>      -0.25000000       0.25000000       0.25000000 </v>
   <v>       0.00000000       0.50000000       0.25000000 </v>
   <v>       0.25000000       0.50000000       0.25000000 </v>
   <v>       0.50000000       0.50000000       0.25000000 </v>
   <v>      -0.25000000       0.50000000       0.25000000 </v>
   <v>       0.00000000      -0.25000000       0.25000000 </v>
   <v>       0.25000000      -0.25000000       0.25000000 </v>
   <v>       0.50000000      -0.25000000       0.25000000 </v>
   <v>      -0.25000000      -0.25000000       0.25000000 </v>
   <v>       0.00000000       0.00000000       0.50000000 </v>
   <v>       0.25000000       0.00000000       0.50000000 </v>
   <v>       0.50000000       0.00000000       0.50000000 </v>
   <v>       0.00000000       0.25000000       0.50000000 </v>
   <v>       0.25000000       0.25000000       0.50000000 </v>
   <v>       0.50000000       0.25000000       0.50000000 </v>
   <v>      -0.25000000       0.25000000       0.50000000 </v>
   <v>       0.00000000       0.50000000       0.50000000 </v>
   <v>       0.25000000       0.50000000       0.50000000 </v>
   <v>       0.50000000       0.50000000       0.50000000 </v>
  </varray>
  <varray name="weights" >
   <v>       0.01562500 </v>
   <v>       0.03125000 </v>
   <v>       0.01562500 </v>
   <v>       0.03125000 </v>
   <v>       0.03125000 </v>
   <v>       0.03125000 </v>
   <v>       0.03125000 </v>
   <v>       0.01562500 </v>
   <v>       0.03125000 </v>
   <v>       0.01562500 </v>
   <v>       0.03125000 </v>
   <v>       0.03125000 </v>
   <v>       0.03125000 </v>
   <v>       0.03125000 </v>
   <v>       0.03125000 </v>
   <v>       0.03125000 </v>
   <v>       0.03125000 </v>
   <v>       0.03125000 </v>
   <v>       0.03125000 </v>
   <v>       0.03125000 </v>
   <v>       0.03125000 </v>
   <v>       0.03125000 </v>
   <v>       0.03125000 </v>
   <v>       0.03125000 </v>
   <v>       0.03125000 </v>
   <v>       0.03125000 </v>
   <v>       0.01562500 </v>
   <v>       0.03125000 </v>
   <v>       0.01562500 </v>
   <v>       0.03125000 </v>
   <v>       0.03125000 </v>
   <v>       0.03125000 </v>
   <v>       0.03125000 </v>
   <v>       0.01562500 </v>
   <v>       0.03125000 </v>
   <v>       0.01562500 </v>
  </varray>
 </kpoints>
 <parameters>
  <separator name="general" >
   <i type="string" name="SYSTEM">unknown system</i>
   <i type="logical" name="LCOMPAT"> F  </i>
  </separator>
  <separator name="electronic" >
   <i type="string" name="PREC">accura</i>
   <i name="ENMAX">    520.00000000</i>
   <i name="ENAUG">    644.87300000</i>
   <i name="EDIFF">      0.00000001</i>
   <i type="int" name="IALGO">    38</i>
   <i type="int" name="IWAVPR">    11</i>
   <i type="int" name="NBANDS">   128</i>
   <i name="NELECT">    200.00000000</i>
   <i type="int" name="TURBO">     0</i>
   <i type="int" name="IRESTART">     0</i>
   <i type="int" name="NREBOOT">     0</i>
   <i type="int" name="NMIN">     0</i>
   <i name="EREF">      0.00000000</i>
   <separator name="electronic smearing" >
    <i type="int" name="ISMEAR">     0</i>
    <i name="SIGMA">      0.01000000</i>
    <i name="KSPACING">      0.50000000</i>
    <i type="logical" name="KGAMMA"> T  </i>
   </separator>
   <separator name="electronic projectors" >
    <i type="logical" name="LREAL"> F  </i>
    <v name="ROPT">      0.00000000      0.00000000      0.00000000      0.00000000      0.00000000</v>
    <i type="int" name="LMAXPAW">  -100</i>
    <i type="int" name="LMAXMIX">     2</i>
    <i type="logical" name="NLSPLINE"> F  </i>
   </separator>
   <separator name="electronic startup" >
    <i type="int" name="ISTART">     0</i>
    <i type="int" name="ICHARG">     2</i>
    <i type="int" name="INIWAV">     1</i>
   </separator>
   <separator name="electronic spin" >
    <i type="int" name="ISPIN">     1</i>
    <i type="logical" name="LNONCOLLINEAR"> F  </i>
    <v name="MAGMOM">      1.00000000      1.00000000      1.00000000      1.00000000      1.00000000      1.00000000      1.00000000      1.00000000      1.00000000      1.00000000      1.00000000      1.00000000      1.00000000      1.00000000      1.00000000      1.00000000      1.00000000      1.00000000      1.00000000      1.00000000
      1.00000000      1.00000000      1.00000000      1.00000000      1.00000000      1.00000000      1.00000000      1.00000000      1.00000000      1.00000000      1.00000000      1.00000000      1.00000000      1.00000000      1.00000000      1.00000000      1.00000000      1.00000000      1.00000000      1.00000000
      1.00000000      1.00000000      1.00000000      1.00000000      1.00000000      1.00000000      1.00000000      1.00000000</v>
    <i name="NUPDOWN">     -1.00000000</i>
    <i type="logical" name="LSORBIT"> F  </i>
    <v name="SAXIS">      0.00000000      0.00000000      1.00000000</v>
    <i type="logical" name="LSPIRAL"> F  </i>
    <v name="QSPIRAL">      0.00000000      0.00000000      0.00000000</v>
    <i type="logical" name="LZEROZ"> F  </i>
   </separator>
   <separator name="electronic exchange-correlation" >
    <i type="logical" name="LASPH"> F  </i>
    <i type="logical" name="LMETAGGA"> F  </i>
   </separator>
   <separator name="electronic convergence" >
    <i type="int" name="NELM">   100</i>
    <i type="int" name="NELMDL">    -5</i>
    <i type="int" name="NELMIN">     2</i>
    <i name="ENINI">    520.00000000</i>
    <separator name="electronic convergence detail" >
     <i type="logical" name="LDIAG"> T  </i>
     <i type="logical" name="LSUBROT"> F  </i>
     <i name="WEIMIN">      0.00100000</i>
     <i name="EBREAK">      0.00000000</i>
     <i name="DEPER">      0.30000000</i>
     <i type="int" name="NRMM">     4</i>
     <i name="TIME">      0.40000000</i>
    </separator>
   </separator>
   <separator name="electronic mixer" >
    <i name="AMIX">      0.40000000</i>
    <i name="BMIX">      1.00000000</i>
    <i name="AMIN">      0.10000000</i>
    <i name="AMIX_MAG">      1.60000000</i>
    <i name="BMIX_MAG">      1.00000000</i>
    <separator name="electronic mixer details" >
     <i type="int" name="IMIX">     4</i>
     <i type="logical" name="MIXFIRST"> F  </i>
     <i type="int" name="MAXMIX">   -45</i>
     <i name="WC">    100.00000000</i>
     <i type="int" name="INIMIX">     1</i>
     <i type="int" name="MIXPRE">     1</i>
     <i type="int" name="MREMOVE">     5</i>
    </separator>
   </separator>
   <separator name="electronic dipolcorrection" >
    <i type="logical" name="LDIPOL"> F  </i>
    <i type="logical" name="LMONO"> F  </i>
    <i type="int" name="IDIPOL">     0</i>
    <i name="EPSILON">      1.00000000</i>
    <v name="DIPOL">   -100.00000000   -100.00000000   -100.00000000</v>
    <i name="EFIELD">      0.00000000</i>
   </separator>
  </separator>
  <separator name="grids" >
   <i type="int" name="NGX">    64</i>
   <i type="int" name="NGY">    70</i>
   <i type="int" name="NGZ">    96</i>
   <i type="int" name="NGXF">   128</i>
   <i type="int" name="NGYF">   140</i>
   <i type="int" name="NGZF">   192</i>
   <i type="logical" name="ADDGRID"> F  </i>
  </separator>
  <separator name="ionic" >
   <i type="int" name="NSW">     1</i>
   <i type="int" name="IBRION">     8</i>
   <i type="int" name="MDALGO">     0</i>
   <i type="int" name="ISIF">     2</i>
   <i name="PSTRESS">      0.00000000</i>
   <i name="EDIFFG">      0.00000010</i>
   <i type="int" name="NFREE">     0</i>
   <i name="POTIM">      0.50000000</i>
   <i name="SMASS">     -3.00000000</i>
   <i name="SCALEE">      1.00000000</i>
  </separator>
  <separator name="ionic md" >
   <i name="TEBEG">      0.00010000</i>
   <i name="TEEND">      0.00010000</i>
   <i type="int" name="NBLOCK">     1</i>
   <i type="int" name="KBLOCK">     1</i>
   <i type="int" name="NPACO">   256</i>
   <i name="APACO">     16.00000000</i>
  </separator>
  <separator name="symmetry" >
   <i type="int" name="ISYM">     2</i>
   <i name="SYMPREC">      0.00000001</i>
  </separator>
  <separator name="dos" >
   <i type="int" name="LORBIT">     0</i>
   <v name="RWIGS">     -1.00000000     -1.00000000     -1.00000000     -1.00000000     -1.00000000</v>
   <i type="int" name="NEDOS">   301</i>
   <i name="EMIN">     10.00000000</i>
   <i name="EMAX">    -10.00000000</i>
   <i name="EFERMI">      0.00000000</i>
  </separator>
  <separator name="writing" >
   <i type="int" name="NWRITE">     2</i>
   <i type="logical" name="LWAVE"> F  </i>
   <i type="logical" name="LDOWNSAMPLE"> F  </i>
   <i type="logical" name="LCHARG"> T  </i>
   <i type="logical" name="LPARD"> F  </i>
   <i type="logical" name="LVTOT"> F  </i>
   <i type="logical" name="LVHAR"> F  </i>
   <i type="logical" name="LELF"> F  </i>
   <i type="logical" name="LOPTICS"> F  </i>
   <v name="STM">      0.00000000      0.00000000      0.00000000      0.00000000      0.00000000      0.00000000      0.00000000</v>
  </separator>
  <separator name="performance" >
   <i type="int" name="NPAR">     8</i>
   <i type="int" name="NSIM">     4</i>
   <i type="int" name="NBLK">    -1</i>
   <i type="logical" name="LPLANE"> T  </i>
   <i type="logical" name="LSCALAPACK"> T  </i>
   <i type="logical" name="LSCAAWARE"> F  </i>
   <i type="logical" name="LSCALU"> F  </i>
   <i type="logical" name="LASYNC"> F  </i>
   <i type="logical" name="LORBITALREAL"> F  </i>
  </separator>
  <separator name="miscellaneous" >
   <i type="int" name="IDIOT">     3</i>
   <i type="int" name="ISPECIAL">     0</i>
   <i type="logical" name="LMUSIC"> F  </i>
   <v name="POMASS">      1.00000000    207.20000000     12.01100000    126.90400000     14.00100000</v>
   <v name="DARWINR">      0.00000000      0.00000000      0.00000000      0.00000000      0.00000000</v>
   <v name="DARWINV">      1.00000000      1.00000000      1.00000000      1.00000000      1.00000000</v>
   <i type="logical" name="LCORR"> T  </i>
  </separator>
  <i type="logical" name="GGA_COMPAT"> T  </i>
  <i type="logical" name="LBERRY"> F  </i>
  <i type="int" name="ICORELEVEL">     0</i>
  <i type="logical" name="LDAU"> F  </i>
  <i type="int" name="I_CONSTRAINED_M">     0</i>
  <separator name="electronic exchange-correlation" >
   <i type="string" name="GGA">--</i>
   <i type="int" name="VOSKOWN">     0</i>
   <i type="logical" name="LHFCALC"> F  </i>
   <i type="string" name="PRECFOCK"></i>
   <i type="logical" name="LSYMGRAD"> F  </i>
   <i type="logical" name="LHFONE"> F  </i>
   <i type="logical" name="LRHFCALC"> F  </i>
   <i type="logical" name="LTHOMAS"> F  </i>
   <i type="logical" name="LMODELHF"> F  </i>
   <i name="ENCUT4O">     -1.00000000</i>
   <i type="int" name="EXXOEP">     0</i>
   <i type="int" name="FOURORBIT">     0</i>
   <i name="AEXX">      0.00000000</i>
   <i name="HFALPHA">      0.00000000</i>
   <i name="MCALPHA">      0.00000000</i>
   <i name="ALDAX">      1.00000000</i>
   <i name="AGGAX">      1.00000000</i>
   <i name="ALDAC">      1.00000000</i>
   <i name="AGGAC">      1.00000000</i>
   <i type="int" name="NKREDX">     1</i>
   <i type="int" name="NKREDY">     1</i>
   <i type="int" name="NKREDZ">     1</i>
   <i type="logical" name="SHIFTRED"> F  </i>
   <i type="logical" name="ODDONLY"> F  </i>
   <i type="logical" name="EVENONLY"> F  </i>
   <i type="int" name="LMAXFOCK">     0</i>
   <i type="int" name="NMAXFOCKAE">     0</i>
   <i type="logical" name="LFOCKAEDFT"> F  </i>
   <i name="HFSCREEN">      0.00000000</i>
   <i name="HFSCREENC">      0.00000000</i>
   <i type="int" name="NBANDSGWLOW">     0</i>
  </separator>
  <separator name="vdW DFT" >
   <i type="logical" name="LUSE_VDW"> F  </i>
   <i name="Zab_VDW">     -0.84910000</i>
   <i name="PARAM1">      0.12340000</i>
   <i name="PARAM2">      1.00000000</i>
   <i name="PARAM3">      0.00000000</i>
  </separator>
  <separator name="model GW" >
   <i type="int" name="MODEL_GW">     0</i>
   <i name="MODEL_EPS0">     12.82649999</i>
   <i name="MODEL_ALPHA">      1.00000000</i>
  </separator>
  <separator name="linear response parameters" >
   <i type="logical" name="LEPSILON"> T  </i>
   <i type="logical" name="LRPA"> F  </i>
   <i type="logical" name="LNABLA"> F  </i>
   <i type="logical" name="LVEL"> F  </i>
   <i type="int" name="KINTER">     0</i>
   <i name="CSHIFT">      0.10000000</i>
   <i name="OMEGAMAX">     -1.00000000</i>
   <i name="DEG_THRESHOLD">      0.00200000</i>
   <i name="RTIME">     -0.10000000</i>
   <i name="WPLASMAI">      0.00000000</i>
   <v name="DFIELD">      0.00000000      0.00000000      0.00000000</v>
   <v name="WPLASMA">      0.00000000      0.00000000      0.00000000      0.00000000      0.00000000      0.00000000      0.00000000      0.00000000      0.00000000</v>
  </separator>
  <separator name="orbital magnetization" >
   <i type="logical" name="NUCIND"> F  </i>
   <v name="MAGPOS">      0.00000000      0.00000000      0.00000000</v>
   <i type="logical" name="LNICSALL"> T  </i>
   <i type="logical" name="ORBITALMAG"> F  </i>
   <i type="logical" name="LMAGBLOCH"> F  </i>
   <i type="logical" name="LCHIMAG"> F  </i>
   <i type="logical" name="LGAUGE"> T  </i>
   <i type="int" name="MAGATOM">     0</i>
   <v name="MAGDIPOL">      0.00000000      0.00000000      0.00000000</v>
   <v name="AVECCONST">      0.00000000      0.00000000      0.00000000</v>
  </separator>
  <separator name="response functions" >
   <i type="logical" name="LADDER"> F  </i>
   <i type="logical" name="LRPAFORCE"> F  </i>
   <i type="logical" name="LFXC"> F  </i>
   <i type="logical" name="LHARTREE"> T  </i>
   <i type="int" name="IBSE">     0</i>
   <v type="int" name="KPOINT">    -1     0     0     0</v>
   <i type="logical" name="LTCTE"> F  </i>
   <i type="logical" name="LTETE"> F  </i>
   <i type="logical" name="LTRIPLET"> F  </i>
   <i type="logical" name="LFXCEPS"> F  </i>
   <i type="logical" name="LFXHEG"> F  </i>
   <i type="int" name="NATURALO">     2</i>
   <i type="logical" name="L2ORDER"> F  </i>
   <i type="logical" name="LMP2LT"> F  </i>
   <i type="logical" name="LUSEW"> F  </i>
   <i name="ENCUTGW">     -2.00000000</i>
   <i name="ENCUTGWSOFT">     -2.00000000</i>
   <i name="ENCUTLF">     -1.00000000</i>
   <i type="int" name="LMAXMP2">    -1</i>
   <i name="SCISSOR">      0.00000000</i>
   <i type="int" name="NOMEGA">     0</i>
   <i type="int" name="NOMEGAR">     0</i>
   <i type="int" name="NBANDSGW">    -1</i>
   <i type="int" name="NBANDSO">    -1</i>
   <i type="int" name="NBANDSV">    -1</i>
   <i type="int" name="NELM">   100</i>
   <i type="int" name="NELMHF">     1</i>
   <i type="int" name="DIM">     3</i>
   <i type="int" name="ANTIRES">     0</i>
   <i name="OMEGAMAX">    -30.00000000</i>
   <i name="OMEGAMIN">    -30.00000000</i>
   <i name="OMEGATL">   -200.00000000</i>
   <i type="int" name="OMEGAGRID">   140</i>
   <i name="CSHIFT">     -0.10000000</i>
   <i type="logical" name="SELFENERGY"> F  </i>
   <i type="logical" name="LSPECTRAL"> F  </i>
   <i type="logical" name="LSPECTRALGW"> F  </i>
   <i type="logical" name="LSINGLES"> F  </i>
   <i type="logical" name="LFERMIGW"> F  </i>
   <i type="logical" name="ODDONLYGW"> F  </i>
   <i type="logical" name="EVENONLYGW"> F  </i>
   <i type="int" name="NKREDLFX">     1</i>
   <i type="int" name="NKREDLFY">     1</i>
   <i type="int" name="NKREDLFZ">     1</i>
   <i type="int" name="MAXMEM">  2800</i>
   <i type="int" name="TELESCOPE">     0</i>
   <i type="int" name="TAUPAR">     1</i>
   <i type="int" name="OMEGAPAR">    -1</i>
   <i name="LAMBDA">      1.00000000</i>
  </separator>
  <separator name="External order field" >
   <i name="OFIELD_KAPPA">      0.00000000</i>
   <v name="OFIELD_K">      0.00000000      0.00000000      0.00000000</v>
   <i name="OFIELD_Q6_NEAR">      0.00000000</i>
   <i name="OFIELD_Q6_FAR">      0.00000000</i>
   <i name="OFIELD_A">      0.00000000</i>
  </separator>
 </parameters>
 <atominfo>
  <atoms>      48 </atoms>
  <types>       5 </types>
  <array name="atoms" >
   <dimension dim="1">ion</dimension>
   <field type="string">element</field>
   <field type="int">atomtype</field>
   <set>
    <rc><c>H </c><c>   1</c></rc>
    <rc><c>H </c><c>   1</c></rc>
    <rc><c>H </c><c>   1</c></rc>
    <rc><c>H </c><c>   1</c></rc>
    <rc><c>H </c><c>   1</c></rc>
    <rc><c>H </c><c>   1</c></rc>
    <rc><c>H </c><c>   1</c></rc>
    <rc><c>H </c><c>   1</c></rc>
    <rc><c>H </c><c>   1</c></rc>
    <rc><c>H </c><c>   1</c></rc>
    <rc><c>H </c><c>   1</c></rc>
    <rc><c>H </c><c>   1</c></rc>
    <rc><c>H </c><c>   1</c></rc>
    <rc><c>H </c><c>   1</c></rc>
    <rc><c>H </c><c>   1</c></rc>
    <rc><c>H </c><c>   1</c></rc>
    <rc><c>H </c><c>   1</c></rc>
    <rc><c>H </c><c>   1</c></rc>
    <rc><c>H </c><c>   1</c></rc>
    <rc><c>H </c><c>   1</c></rc>
    <rc><c>H </c><c>   1</c></rc>
    <rc><c>H </c><c>   1</c></rc>
    <rc><c>H </c><c>   1</c></rc>
    <rc><c>H </c><c>   1</c></rc>
    <rc><c>Pb</c><c>   2</c></rc>
    <rc><c>Pb</c><c>   2</c></rc>
    <rc><c>Pb</c><c>   2</c></rc>
    <rc><c>Pb</c><c>   2</c></rc>
    <rc><c>C </c><c>   3</c></rc>
    <rc><c>C </c><c>   3</c></rc>
    <rc><c>C </c><c>   3</c></rc>
    <rc><c>C </c><c>   3</c></rc>
    <rc><c>I </c><c>   4</c></rc>
    <rc><c>I </c><c>   4</c></rc>
    <rc><c>I </c><c>   4</c></rc>
    <rc><c>I </c><c>   4</c></rc>
    <rc><c>I </c><c>   4</c></rc>
    <rc><c>I </c><c>   4</c></rc>
    <rc><c>I </c><c>   4</c></rc>
    <rc><c>I </c><c>   4</c></rc>
    <rc><c>I </c><c>   4</c></rc>
    <rc><c>I </c><c>   4</c></rc>
    <rc><c>I </c><c>   4</c></rc>
    <rc><c>I </c><c>   4</c></rc>
    <rc><c>N </c><c>   5</c></rc>
    <rc><c>N </c><c>   5</c></rc>
    <rc><c>N </c><c>   5</c></rc>
    <rc><c>N </c><c>   5</c></rc>
   </set>
  </array>
  <array name="atomtypes" >
   <dimension dim="1">type</dimension>
   <field type="int">atomspertype</field>
   <field type="string">element</field>
   <field>mass</field>
   <field>valence</field>
   <field type="string">pseudopotential</field>
   <set>
    <rc><c>  24</c><c>H </c><c>      1.00000000</c><c>      1.00000000</c><c>  PAW_PBE H 15Jun2001                   </c></rc>
    <rc><c>   4</c><c>Pb</c><c>    207.20000000</c><c>     14.00000000</c><c>  PAW_PBE Pb_d 06Sep2000                </c></rc>
    <rc><c>   4</c><c>C </c><c>     12.01100000</c><c>      4.00000000</c><c>  PAW_PBE C 08Apr2002                   </c></rc>
    <rc><c>  12</c><c>I </c><c>    126.90400000</c><c>      7.00000000</c><c>  PAW_PBE I 08Apr2002                   </c></rc>
    <rc><c>   4</c><c>N </c><c>     14.00100000</c><c>      5.00000000</c><c>  PAW_PBE N 08Apr2002                   </c></rc>
   </set>
  </array>
 </atominfo>
 <structure name="initialpos" >
  <crystal>
   <varray name="basis" >
    <v>       8.55672534       0.00000000       0.00000000 </v>
    <v>       0.00000000       9.25045929       0.00000000 </v>
    <v>       0.00000000       0.00000000      12.96364900 </v>
   </varray>
   <i name="volume">   1026.11999904 </i>
   <varray name="rec_basis" >
    <v>       0.11686714       0.00000000       0.00000000 </v>
    <v>       0.00000000       0.10810274       0.00000000 </v>
    <v>       0.00000000       0.00000000       0.07713877 </v>
   </varray>
  </crystal>
  <varray name="positions" >
   <v>       0.49426404       0.14297401       0.68537605 </v>
   <v>       0.50573604       0.85702607       0.31462402 </v>
   <v>       0.00573600       0.64297405       0.31462402 </v>
   <v>       0.99426408       0.35702603       0.68537605 </v>
   <v>       0.50573604       0.85702607       0.18537601 </v>
   <v>       0.49426404       0.14297401       0.81462406 </v>
   <v>       0.99426408       0.35702603       0.81462406 </v>
   <v>       0.00573600       0.64297405       0.18537601 </v>
   <v>       0.33805903       0.07863201       0.75000006 </v>
   <v>       0.66194105       0.92136807       0.25000002 </v>
   <v>       0.16194101       0.57863204       0.25000002 </v>
   <v>       0.83805906       0.42136803       0.75000006 </v>
   <v>       0.49477504       0.87988907       0.68076105 </v>
   <v>       0.50522504       0.12011101       0.31923902 </v>
   <v>       0.00522500       0.37988903       0.31923902 </v>
   <v>       0.99477508       0.62011105       0.68076105 </v>
   <v>       0.50522504       0.12011101       0.18076101 </v>
   <v>       0.49477504       0.87988907       0.81923906 </v>
   <v>       0.99477508       0.62011105       0.81923906 </v>
   <v>       0.00522500       0.37988903       0.18076101 </v>
   <v>       0.65984805       0.94966307       0.75000006 </v>
   <v>       0.34015203       0.05033700       0.25000002 </v>
   <v>       0.84015206       0.44966303       0.25000002 </v>
   <v>       0.15984801       0.55033704       0.75000006 </v>
   <v>       0.50000004       0.50000004       0.00000000 </v>
   <v>       0.00000000       0.00000000       0.00000000 </v>
   <v>       0.50000004       0.50000004       0.50000004 </v>
   <v>       0.00000000       0.00000000       0.50000004 </v>
   <v>       0.53235504       0.93783807       0.75000006 </v>
   <v>       0.46764504       0.06216200       0.25000002 </v>
   <v>       0.96764507       0.43783803       0.25000002 </v>
   <v>       0.03235500       0.56216204       0.75000006 </v>
   <v>       0.53773304       0.51259604       0.75000006 </v>
   <v>       0.46226704       0.48740404       0.25000002 </v>
   <v>       0.96226707       0.01259600       0.25000002 </v>
   <v>       0.03773300       0.98740408       0.75000006 </v>
   <v>       0.81606606       0.69283905       0.02214700 </v>
   <v>       0.18393401       0.30716102       0.97785308 </v>
   <v>       0.68393405       0.19283901       0.97785308 </v>
   <v>       0.31606602       0.80716106       0.02214700 </v>
   <v>       0.18393401       0.30716102       0.52214704 </v>
   <v>       0.81606606       0.69283905       0.47785304 </v>
   <v>       0.31606602       0.80716106       0.47785304 </v>
   <v>       0.68393405       0.19283901       0.52214704 </v>
   <v>       0.45960904       0.08486301       0.75000006 </v>
   <v>       0.54039104       0.91513707       0.25000002 </v>
   <v>       0.04039100       0.58486304       0.25000002 </v>
   <v>       0.95960907       0.41513703       0.75000006 </v>
  </varray>
 </structure>
 <calculation>
  <scstep>
   <time name="dav">   80.02   80.03</time>
   <time name="total">   80.31   80.32</time>
   <energy>
    <i name="alphaZ">    180.04472632 </i>
    <i name="ewald">  -7796.45121179 </i>
    <i name="hartreedc">  -3989.23220028 </i>
    <i name="XCdc">    180.92830953 </i>
    <i name="pawpsdc">  10309.81379954 </i>
    <i name="pawaedc">  -9935.00263431 </i>
    <i name="eentropy">     -0.00048752 </i>
    <i name="bandstr">    248.36246948 </i>
    <i name="atom">  12383.28961999 </i>
    <i name="e_fr_energy">   1581.75239096 </i>
    <i name="e_wo_entrp">   1581.75287848 </i>
    <i name="e_0_energy">   1581.75263472 </i>
   </energy>
  </scstep>
  <scstep>
   <time name="dav">   92.26   92.27</time>
   <time name="total">   92.26   92.27</time>
   <energy>
    <i name="e_fr_energy">     28.97033747 </i>
    <i name="e_wo_entrp">     28.97033747 </i>
    <i name="e_0_energy">     28.97033747 </i>
   </energy>
  </scstep>
  <scstep>
   <time name="dav">   98.09   98.09</time>
   <time name="total">   98.09   98.09</time>
   <energy>
    <i name="e_fr_energy">   -202.36457469 </i>
    <i name="e_wo_entrp">   -202.36457469 </i>
    <i name="e_0_energy">   -202.36457469 </i>
   </energy>
  </scstep>
  <scstep>
   <time name="dav">  102.00  102.00</time>
   <time name="total">  102.00  102.00</time>
   <energy>
    <i name="e_fr_energy">   -215.43937820 </i>
    <i name="e_wo_entrp">   -215.43937820 </i>
    <i name="e_0_energy">   -215.43937820 </i>
   </energy>
  </scstep>
  <scstep>
   <time name="dav">  102.70  102.71</time>
   <time name="total">  106.45  106.46</time>
   <energy>
    <i name="e_fr_energy">   -215.88175049 </i>
    <i name="e_wo_entrp">   -215.88175049 </i>
    <i name="e_0_energy">   -215.88175049 </i>
   </energy>
  </scstep>
  <scstep>
   <time name="dav">   99.68   99.68</time>
   <time name="total">  103.56  103.57</time>
   <energy>
    <i name="e_fr_energy">   -205.14561557 </i>
    <i name="e_wo_entrp">   -205.14561557 </i>
    <i name="e_0_energy">   -205.14561557 </i>
   </energy>
  </scstep>
  <scstep>
   <time name="dav">  102.33  102.34</time>
   <time name="total">  106.27  106.28</time>
   <energy>
    <i name="e_fr_energy">   -203.79631952 </i>
    <i name="e_wo_entrp">   -203.79631952 </i>
    <i name="e_0_energy">   -203.79631952 </i>
   </energy>
  </scstep>
  <scstep>
   <time name="dav">   88.84   88.85</time>
   <time name="total">   92.75   92.75</time>
   <energy>
    <i name="e_fr_energy">   -203.73238913 </i>
    <i name="e_wo_entrp">   -203.73238913 </i>
    <i name="e_0_energy">   -203.73238913 </i>
   </energy>
  </scstep>
  <scstep>
   <time name="dav">   98.36   98.36</time>
   <time name="total">  102.22  102.22</time>
   <energy>
    <i name="e_fr_energy">   -203.67243232 </i>
    <i name="e_wo_entrp">   -203.67243232 </i>
    <i name="e_0_energy">   -203.67243232 </i>
   </energy>
  </scstep>
  <scstep>
   <time name="dav">   96.35   96.36</time>
   <time name="total">  100.32  100.33</time>
   <energy>
    <i name="e_fr_energy">   -203.67979282 </i>
    <i name="e_wo_entrp">   -203.67979282 </i>
    <i name="e_0_energy">   -203.67979282 </i>
   </energy>
  </scstep>
  <scstep>
   <time name="dav">   97.13   97.13</time>
   <time name="total">  101.19  101.19</time>
   <energy>
    <i name="e_fr_energy">   -203.67918090 </i>
    <i name="e_wo_entrp">   -203.67918090 </i>
    <i name="e_0_energy">   -203.67918090 </i>
   </energy>
  </scstep>
  <scstep>
   <time name="dav">   95.72   95.73</time>
   <time name="total">   99.52   99.53</time>
   <energy>
    <i name="e_fr_energy">   -203.67998731 </i>
    <i name="e_wo_entrp">   -203.67998731 </i>
    <i name="e_0_energy">   -203.67998731 </i>
   </energy>
  </scstep>
  <scstep>
   <time name="dav">   90.63   90.64</time>
   <time name="total">   94.96   94.96</time>
   <energy>
    <i name="e_fr_energy">   -203.68002122 </i>
    <i name="e_wo_entrp">   -203.68002122 </i>
    <i name="e_0_energy">   -203.68002122 </i>
   </energy>
  </scstep>
  <scstep>
   <time name="dav">   98.66   98.66</time>
   <time name="total">  102.66  102.67</time>
   <energy>
    <i name="e_fr_energy">   -203.68003386 </i>
    <i name="e_wo_entrp">   -203.68003386 </i>
    <i name="e_0_energy">   -203.68003386 </i>
   </energy>
  </scstep>
  <scstep>
   <time name="dav">   90.74   90.74</time>
   <time name="total">   94.94   94.94</time>
   <energy>
    <i name="e_fr_energy">   -203.68004351 </i>
    <i name="e_wo_entrp">   -203.68004351 </i>
    <i name="e_0_energy">   -203.68004351 </i>
   </energy>
  </scstep>
  <scstep>
   <time name="dav">  106.47  106.47</time>
   <time name="total">  110.49  110.49</time>
   <energy>
    <i name="e_fr_energy">   -203.68004487 </i>
    <i name="e_wo_entrp">   -203.68004487 </i>
    <i name="e_0_energy">   -203.68004487 </i>
   </energy>
  </scstep>
  <scstep>
   <time name="dav">   88.07   88.08</time>
   <time name="total">   91.92   91.93</time>
   <energy>
    <i name="e_fr_energy">   -203.68004476 </i>
    <i name="e_wo_entrp">   -203.68004476 </i>
    <i name="e_0_energy">   -203.68004476 </i>
   </energy>
  </scstep>
  <scstep>
   <time name="dav">   87.96   87.97</time>
   <time name="total">   92.11   92.12</time>
   <energy>
    <i name="e_fr_energy">   -203.68004413 </i>
    <i name="e_wo_entrp">   -203.68004413 </i>
    <i name="e_0_energy">   -203.68004413 </i>
   </energy>
  </scstep>
  <scstep>
   <time name="dav">   92.52   92.53</time>
   <time name="total">   96.67   96.68</time>
   <energy>
    <i name="e_fr_energy">   -203.68004421 </i>
    <i name="e_wo_entrp">   -203.68004421 </i>
    <i name="e_0_energy">   -203.68004421 </i>
   </energy>
  </scstep>
  <scstep>
   <time name="dav">   67.91   67.92</time>
   <time name="total">   71.99   72.00</time>
   <energy>
    <i name="e_fr_energy">   -203.68004423 </i>
    <i name="e_wo_entrp">   -203.68004423 </i>
    <i name="e_0_energy">   -203.68004423 </i>
   </energy>
  </scstep>
  <scstep>
   <time name="dav">   74.84   74.84</time>
   <time name="total">   79.15   79.15</time>
   <energy>
    <i name="e_fr_energy">   -203.68004436 </i>
    <i name="e_wo_entrp">   -203.68004436 </i>
    <i name="e_0_energy">   -203.68004436 </i>
   </energy>
  </scstep>
  <scstep>
   <time name="dav">   65.64   65.64</time>
   <time name="total">   69.14   69.15</time>
   <energy>
    <i name="e_fr_energy">   -203.68004434 </i>
    <i name="e_wo_entrp">   -203.68004434 </i>
    <i name="e_0_energy">   -203.68004434 </i>
   </energy>
  </scstep>
  <scstep>
   <time name="dav">   60.49   60.49</time>
   <time name="total">   64.49   64.50</time>
   <energy>
    <i name="e_fr_energy">   -203.68004432 </i>
    <i name="e_wo_entrp">   -203.68004432 </i>
    <i name="e_0_energy">   -203.68004432 </i>
   </energy>
  </scstep>
  <scstep>
   <time name="dav">   57.52   57.53</time>
   <time name="total">   61.41   61.42</time>
   <energy>
    <i name="e_fr_energy">   -203.68004430 </i>
    <i name="e_wo_entrp">   -203.68004430 </i>
    <i name="e_0_energy">   -203.68004430 </i>
   </energy>
  </scstep>
  <scstep>
   <time name="dav">   57.60   57.61</time>
   <time name="total">   57.89   57.90</time>
   <energy>
    <i name="alphaZ">    180.04472632 </i>
    <i name="ewald">  -7796.45121179 </i>
    <i name="hartreedc">  -4137.18928106 </i>
    <i name="XCdc">    196.37161738 </i>
    <i name="pawpsdc">  14440.55391930 </i>
    <i name="pawaedc"> -14063.18569701 </i>
    <i name="eentropy">     -0.00000000 </i>
    <i name="bandstr">  -1407.11373743 </i>
    <i name="atom">  12383.28961999 </i>
    <i name="e_fr_energy">   -203.68004430 </i>
    <i name="e_wo_entrp">   -203.68004430 </i>
    <i name="e_0_energy">   -203.68004430 </i>
   </energy>
  </scstep>
  <structure>
   <crystal>
    <varray name="basis" >
     <v>       8.55672534       0.00000000       0.00000000 </v>
     <v>       0.00000000       9.25045929       0.00000000 </v>
     <v>       0.00000000       0.00000000      12.96364900 </v>
    </varray>
    <i name="volume">   1026.11999904 </i>
    <varray name="rec_basis" >
     <v>       0.11686714       0.00000000       0.00000000 </v>
     <v>       0.00000000       0.10810274       0.00000000 </v>
     <v>       0.00000000       0.00000000       0.07713877 </v>
    </varray>
   </crystal>
   <varray name="positions" >
    <v>       0.49426404       0.14297401       0.68537605 </v>
    <v>       0.50573604       0.85702607       0.31462402 </v>
    <v>       0.00573600       0.64297405       0.31462402 </v>
    <v>       0.99426408       0.35702603       0.68537605 </v>
    <v>       0.50573604       0.85702607       0.18537601 </v>
    <v>       0.49426404       0.14297401       0.81462406 </v>
    <v>       0.99426408       0.35702603       0.81462406 </v>
    <v>       0.00573600       0.64297405       0.18537601 </v>
    <v>       0.33805903       0.07863201       0.75000006 </v>
    <v>       0.66194105       0.92136807       0.25000002 </v>
    <v>       0.16194101       0.57863204       0.25000002 </v>
    <v>       0.83805906       0.42136803       0.75000006 </v>
    <v>       0.49477504       0.87988907       0.68076105 </v>
    <v>       0.50522504       0.12011101       0.31923902 </v>
    <v>       0.00522500       0.37988903       0.31923902 </v>
    <v>       0.99477508       0.62011105       0.68076105 </v>
    <v>       0.50522504       0.12011101       0.18076101 </v>
    <v>       0.49477504       0.87988907       0.81923906 </v>
    <v>       0.99477508       0.62011105       0.81923906 </v>
    <v>       0.00522500       0.37988903       0.18076101 </v>
    <v>       0.65984805       0.94966307       0.75000006 </v>
    <v>       0.34015203       0.05033700       0.25000002 </v>
    <v>       0.84015206       0.44966303       0.25000002 </v>
    <v>       0.15984801       0.55033704       0.75000006 </v>
    <v>       0.50000004       0.50000004       0.00000000 </v>
    <v>       0.00000000       0.00000000       0.00000000 </v>
    <v>       0.50000004       0.50000004       0.50000004 </v>
    <v>       0.00000000       0.00000000       0.50000004 </v>
    <v>       0.53235504       0.93783807       0.75000006 </v>
    <v>       0.46764504       0.06216200       0.25000002 </v>
    <v>       0.96764507       0.43783803       0.25000002 </v>
    <v>       0.03235500       0.56216204       0.75000006 </v>
    <v>       0.53773304       0.51259604       0.75000006 </v>
    <v>       0.46226704       0.48740404       0.25000002 </v>
    <v>       0.96226707       0.01259600       0.25000002 </v>
    <v>       0.03773300       0.98740408       0.75000006 </v>
    <v>       0.81606606       0.69283905       0.02214700 </v>
    <v>       0.18393401       0.30716102       0.97785308 </v>
    <v>       0.68393405       0.19283901       0.97785308 </v>
    <v>       0.31606602       0.80716106       0.02214700 </v>
    <v>       0.18393401       0.30716102       0.52214704 </v>
    <v>       0.81606606       0.69283905       0.47785304 </v>
    <v>       0.31606602       0.80716106       0.47785304 </v>
    <v>       0.68393405       0.19283901       0.52214704 </v>
    <v>       0.45960904       0.08486301       0.75000006 </v>
    <v>       0.54039104       0.91513707       0.25000002 </v>
    <v>       0.04039100       0.58486304       0.25000002 </v>
    <v>       0.95960907       0.41513703       0.75000006 </v>
   </varray>
  </structure>
  <varray name="forces" >
   <v>       0.05280396      -0.02647986      -0.04466114 </v>
   <v>      -0.05280402       0.02647981       0.04466102 </v>
   <v>      -0.05280498      -0.02648161       0.04466145 </v>
   <v>       0.05280516       0.02648162      -0.04466171 </v>
   <v>      -0.05280403       0.02647979      -0.04466117 </v>
   <v>       0.05280399      -0.02647985       0.04466126 </v>
   <v>       0.05280518       0.02648165       0.04466179 </v>
   <v>      -0.05280501      -0.02648164      -0.04466153 </v>
   <v>       0.04164228      -0.06821147       0.00000002 </v>
   <v>      -0.04164205       0.06821157      -0.00000001 </v>
   <v>      -0.04164205      -0.06820944       0.00000001 </v>
   <v>       0.04164235       0.06820941       0.00000002 </v>
   <v>      -0.04125692       0.02483866      -0.02805698 </v>
   <v>       0.04125691      -0.02483862       0.02805698 </v>
   <v>       0.04126279       0.02483795       0.02806142 </v>
   <v>      -0.04126270      -0.02483805      -0.02806137 </v>
   <v>       0.04125691      -0.02483862      -0.02805701 </v>
   <v>      -0.04125693       0.02483863       0.02805705 </v>
   <v>      -0.04126272      -0.02483802       0.02806136 </v>
   <v>       0.04126278       0.02483795      -0.02806135 </v>
   <v>      -0.04491186       0.04808826      -0.00000005 </v>
   <v>       0.04491175      -0.04808824       0.00000004 </v>
   <v>       0.04491043       0.04808783       0.00000003 </v>
   <v>      -0.04491059      -0.04808785      -0.00000004 </v>
   <v>      -0.00000069      -0.00000008       0.00000104 </v>
   <v>       0.00000067       0.00000055       0.00000100 </v>
   <v>      -0.00000081      -0.00000027      -0.00000078 </v>
   <v>       0.00000055       0.00000074      -0.00000074 </v>
   <v>       0.04404452       0.04051794      -0.00000052 </v>
   <v>      -0.04404451      -0.04051787       0.00000046 </v>
   <v>      -0.04405671       0.04053330       0.00000021 </v>
   <v>       0.04405684      -0.04053345      -0.00000025 </v>
   <v>       0.01455061      -0.01156853      -0.00000063 </v>
   <v>      -0.01455048       0.01156869       0.00000052 </v>
   <v>      -0.01455082      -0.01156843       0.00000099 </v>
   <v>       0.01455072       0.01156813      -0.00000113 </v>
   <v>      -0.01340304       0.01976678       0.00578211 </v>
   <v>       0.01340299      -0.01976705      -0.00578229 </v>
   <v>       0.01340121       0.01976824      -0.00578239 </v>
   <v>      -0.01340134      -0.01976841       0.00578215 </v>
   <v>       0.01340300      -0.01976704       0.00578202 </v>
   <v>      -0.01340300       0.01976667      -0.00578187 </v>
   <v>      -0.01340132      -0.01976833      -0.00578194 </v>
   <v>       0.01340124       0.01976820       0.00578218 </v>
   <v>      -0.07679878      -0.02633747       0.00000023 </v>
   <v>       0.07679874       0.02633744      -0.00000044 </v>
   <v>       0.07680281      -0.02634965       0.00000000 </v>
   <v>      -0.07680304       0.02635006      -0.00000000 </v>
  </varray>
  <varray name="stress" >
   <v>      -0.75654950      -0.00001800      -0.00000258 </v>
   <v>      -0.00001800      -1.22600855       0.00000008 </v>
   <v>      -0.00000298       0.00000001       0.84864743 </v>
  </varray>
  <energy>
   <i name="e_fr_energy">   -203.68004430 </i>
   <i name="e_wo_entrp">   -203.68004430 </i>
   <i name="e_0_energy">     -0.00000000 </i>
  </energy>
  <scstep>
   <time name="total">  119.07  119.07</time>
   <energy>
    <i name="e_fr_energy">    -12.13901299 </i>
    <i name="e_wo_entrp">    -12.13901299 </i>
    <i name="e_0_energy">    -12.13901299 </i>
   </energy>
  </scstep>
  <scstep>
   <time name="total">  102.66  102.66</time>
   <energy>
    <i name="e_fr_energy">    -12.78606527 </i>
    <i name="e_wo_entrp">    -12.78606527 </i>
    <i name="e_0_energy">    -12.78606527 </i>
   </energy>
  </scstep>
  <scstep>
   <time name="total">  109.03  109.04</time>
   <energy>
    <i name="e_fr_energy">    -12.79435743 </i>
    <i name="e_wo_entrp">    -12.79435743 </i>
    <i name="e_0_energy">    -12.79435743 </i>
   </energy>
  </scstep>
  <scstep>
   <time name="total">  102.12  102.12</time>
   <energy>
    <i name="e_fr_energy">    -12.79563450 </i>
    <i name="e_wo_entrp">    -12.79563450 </i>
    <i name="e_0_energy">    -12.79563450 </i>
   </energy>
  </scstep>
  <scstep>
   <time name="total">  110.26  110.26</time>
   <energy>
    <i name="e_fr_energy">    -12.79568463 </i>
    <i name="e_wo_entrp">    -12.79568463 </i>
    <i name="e_0_energy">    -12.79568463 </i>
   </energy>
  </scstep>
  <scstep>
   <time name="total">  108.06  108.06</time>
   <energy>
    <i name="e_fr_energy">    -12.79569812 </i>
    <i name="e_wo_entrp">    -12.79569812 </i>
    <i name="e_0_energy">    -12.79569812 </i>
   </energy>
  </scstep>
  <scstep>
   <time name="total">  110.78  110.78</time>
   <energy>
    <i name="e_fr_energy">    -12.79569959 </i>
    <i name="e_wo_entrp">    -12.79569959 </i>
    <i name="e_0_energy">    -12.79569959 </i>
   </energy>
  </scstep>
  <scstep>
   <time name="total">  106.95  106.96</time>
   <energy>
    <i name="e_fr_energy">    -12.79570047 </i>
    <i name="e_wo_entrp">    -12.79570047 </i>
    <i name="e_0_energy">    -12.79570047 </i>
   </energy>
  </scstep>
  <scstep>
   <time name="total">  107.47  107.47</time>
   <energy>
    <i name="e_fr_energy">    -12.79570069 </i>
    <i name="e_wo_entrp">    -12.79570069 </i>
    <i name="e_0_energy">    -12.79570069 </i>
   </energy>
  </scstep>
  <scstep>
   <time name="total">  107.79  107.79</time>
   <energy>
    <i name="e_fr_energy">    -12.79570074 </i>
    <i name="e_wo_entrp">    -12.79570074 </i>
    <i name="e_0_energy">    -12.79570074 </i>
   </energy>
  </scstep>
  <scstep>
   <time name="total">  106.72  106.72</time>
   <energy>
    <i name="e_fr_energy">    -12.79570077 </i>
    <i name="e_wo_entrp">    -12.79570077 </i>
    <i name="e_0_energy">    -12.79570077 </i>
   </energy>
  </scstep>
  <scstep>
   <time name="total">  103.62  103.62</time>
   <energy>
    <i name="e_fr_energy">    -12.79570078 </i>
    <i name="e_wo_entrp">    -12.79570078 </i>
    <i name="e_0_energy">    -12.79570078 </i>
   </energy>
  </scstep>
  <scstep>
   <time name="total">  108.12  108.12</time>
   <energy>
    <i name="e_fr_energy">    -12.79570078 </i>
    <i name="e_wo_entrp">    -12.79570078 </i>
    <i name="e_0_energy">    -12.79570078 </i>
   </energy>
  </scstep>
  <scstep>
   <time name="total">  105.98  105.98</time>
   <energy>
    <i name="e_fr_energy">    -12.79570078 </i>
    <i name="e_wo_entrp">    -12.79570078 </i>
    <i name="e_0_energy">    -12.79570078 </i>
   </energy>
  </scstep>
  <scstep>
   <time name="total">  105.82  105.82</time>
   <energy>
    <i name="e_fr_energy">    -12.79570079 </i>
    <i name="e_wo_entrp">    -12.79570079 </i>
    <i name="e_0_energy">    -12.79570079 </i>
   </energy>
  </scstep>
  <scstep>
   <time name="total">  106.61  106.61</time>
   <energy>
    <i name="e_fr_energy">    -12.79570079 </i>
    <i name="e_wo_entrp">    -12.79570079 </i>
    <i name="e_0_energy">    -12.79570079 </i>
   </energy>
  </scstep>
  <scstep>
   <time name="total">  106.72  106.72</time>
   <energy>
    <i name="e_fr_energy">    -12.79570079 </i>
    <i name="e_wo_entrp">    -12.79570079 </i>
    <i name="e_0_energy">    -12.79570079 </i>
   </energy>
  </scstep>
  <scstep>
   <time name="total">  114.09  114.09</time>
   <energy>
    <i name="e_fr_energy">    -12.23568465 </i>
    <i name="e_wo_entrp">    -12.23568465 </i>
    <i name="e_0_energy">    -12.23568465 </i>
   </energy>
  </scstep>
  <scstep>
   <time name="total">  100.32  100.32</time>
   <energy>
    <i name="e_fr_energy">    -12.92473301 </i>
    <i name="e_wo_entrp">    -12.92473301 </i>
    <i name="e_0_energy">    -12.92473301 </i>
   </energy>
  </scstep>
  <scstep>
   <time name="total">  109.74  109.75</time>
   <energy>
    <i name="e_fr_energy">    -12.93410351 </i>
    <i name="e_wo_entrp">    -12.93410351 </i>
    <i name="e_0_energy">    -12.93410351 </i>
   </energy>
  </scstep>
  <scstep>
   <time name="total">  104.15  104.15</time>
   <energy>
    <i name="e_fr_energy">    -12.93544815 </i>
    <i name="e_wo_entrp">    -12.93544815 </i>
    <i name="e_0_energy">    -12.93544815 </i>
   </energy>
  </scstep>
  <scstep>
   <time name="total">  111.56  111.56</time>
   <energy>
    <i name="e_fr_energy">    -12.93551818 </i>
    <i name="e_wo_entrp">    -12.93551818 </i>
    <i name="e_0_energy">    -12.93551818 </i>
   </energy>
  </scstep>
  <scstep>
   <time name="total">  107.60  107.60</time>
   <energy>
    <i name="e_fr_energy">    -12.93553072 </i>
    <i name="e_wo_entrp">    -12.93553072 </i>
    <i name="e_0_energy">    -12.93553072 </i>
   </energy>
  </scstep>
  <scstep>
   <time name="total">  111.17  111.17</time>
   <energy>
    <i name="e_fr_energy">    -12.93553206 </i>
    <i name="e_wo_entrp">    -12.93553206 </i>
    <i name="e_0_energy">    -12.93553206 </i>
   </energy>
  </scstep>
  <scstep>
   <time name="total">  106.61  106.61</time>
   <energy>
    <i name="e_fr_energy">    -12.93553311 </i>
    <i name="e_wo_entrp">    -12.93553311 </i>
    <i name="e_0_energy">    -12.93553311 </i>
   </energy>
  </scstep>
  <scstep>
   <time name="total">  107.64  107.64</time>
   <energy>
    <i name="e_fr_energy">    -12.93553323 </i>
    <i name="e_wo_entrp">    -12.93553323 </i>
    <i name="e_0_energy">    -12.93553323 </i>
   </energy>
  </scstep>
  <scstep>
   <time name="total">  107.43  107.43</time>
   <energy>
    <i name="e_fr_energy">    -12.93553333 </i>
    <i name="e_wo_entrp">    -12.93553333 </i>
    <i name="e_0_energy">    -12.93553333 </i>
   </energy>
  </scstep>
  <scstep>
   <time name="total">  105.95  105.95</time>
   <energy>
    <i name="e_fr_energy">    -12.93553335 </i>
    <i name="e_wo_entrp">    -12.93553335 </i>
    <i name="e_0_energy">    -12.93553335 </i>
   </energy>
  </scstep>
  <scstep>
   <time name="total">  106.21  106.21</time>
   <energy>
    <i name="e_fr_energy">    -12.93553336 </i>
    <i name="e_wo_entrp">    -12.93553336 </i>
    <i name="e_0_energy">    -12.93553336 </i>
   </energy>
  </scstep>
  <scstep>
   <time name="total">  108.08  108.08</time>
   <energy>
    <i name="e_fr_energy">    -12.93553336 </i>
    <i name="e_wo_entrp">    -12.93553336 </i>
    <i name="e_0_energy">    -12.93553336 </i>
   </energy>
  </scstep>
  <scstep>
   <time name="total">  105.90  105.90</time>
   <energy>
    <i name="e_fr_energy">    -12.93553336 </i>
    <i name="e_wo_entrp">    -12.93553336 </i>
    <i name="e_0_energy">    -12.93553336 </i>
   </energy>
  </scstep>
  <scstep>
   <time name="total">  103.76  103.76</time>
   <energy>
    <i name="e_fr_energy">    -12.93553336 </i>
    <i name="e_wo_entrp">    -12.93553336 </i>
    <i name="e_0_energy">    -12.93553336 </i>
   </energy>
  </scstep>
  <scstep>
   <time name="total">  105.88  105.88</time>
   <energy>
    <i name="e_fr_energy">    -12.93553336 </i>
    <i name="e_wo_entrp">    -12.93553336 </i>
    <i name="e_0_energy">    -12.93553336 </i>
   </energy>
  </scstep>
  <scstep>
   <time name="total">  104.72  104.72</time>
   <energy>
    <i name="e_fr_energy">    -12.93553336 </i>
    <i name="e_wo_entrp">    -12.93553336 </i>
    <i name="e_0_energy">    -12.93553336 </i>
   </energy>
  </scstep>
  <scstep>
   <time name="total">  118.35  118.35</time>
   <energy>
    <i name="e_fr_energy">    -13.01010723 </i>
    <i name="e_wo_entrp">    -13.01010723 </i>
    <i name="e_0_energy">    -13.01010723 </i>
   </energy>
  </scstep>
  <scstep>
   <time name="total">  101.09  101.10</time>
   <energy>
    <i name="e_fr_energy">    -13.65525799 </i>
    <i name="e_wo_entrp">    -13.65525799 </i>
    <i name="e_0_energy">    -13.65525799 </i>
   </energy>
  </scstep>
  <scstep>
   <time name="total">  108.38  108.38</time>
   <energy>
    <i name="e_fr_energy">    -13.66410800 </i>
    <i name="e_wo_entrp">    -13.66410800 </i>
    <i name="e_0_energy">    -13.66410800 </i>
   </energy>
  </scstep>
  <scstep>
   <time name="total">  100.19  100.19</time>
   <energy>
    <i name="e_fr_energy">    -13.66565118 </i>
    <i name="e_wo_entrp">    -13.66565118 </i>
    <i name="e_0_energy">    -13.66565118 </i>
   </energy>
  </scstep>
  <scstep>
   <time name="total">  112.17  112.17</time>
   <energy>
    <i name="e_fr_energy">    -13.66570701 </i>
    <i name="e_wo_entrp">    -13.66570701 </i>
    <i name="e_0_energy">    -13.66570701 </i>
   </energy>
  </scstep>
  <scstep>
   <time name="total">  103.21  103.21</time>
   <energy>
    <i name="e_fr_energy">    -13.66572133 </i>
    <i name="e_wo_entrp">    -13.66572133 </i>
    <i name="e_0_energy">    -13.66572133 </i>
   </energy>
  </scstep>
  <scstep>
   <time name="total">  108.32  108.32</time>
   <energy>
    <i name="e_fr_energy">    -13.66572300 </i>
    <i name="e_wo_entrp">    -13.66572300 </i>
    <i name="e_0_energy">    -13.66572300 </i>
   </energy>
  </scstep>
  <scstep>
   <time name="total">  106.62  106.62</time>
   <energy>
    <i name="e_fr_energy">    -13.66572410 </i>
    <i name="e_wo_entrp">    -13.66572410 </i>
    <i name="e_0_energy">    -13.66572410 </i>
   </energy>
  </scstep>
  <scstep>
   <time name="total">  105.64  105.64</time>
   <energy>
    <i name="e_fr_energy">    -13.66572437 </i>
    <i name="e_wo_entrp">    -13.66572437 </i>
    <i name="e_0_energy">    -13.66572437 </i>
   </energy>
  </scstep>
  <scstep>
   <time name="total">  104.84  104.84</time>
   <energy>
    <i name="e_fr_energy">    -13.66572442 </i>
    <i name="e_wo_entrp">    -13.66572442 </i>
    <i name="e_0_energy">    -13.66572442 </i>
   </energy>
  </scstep>
  <scstep>
   <time name="total">  105.69  105.69</time>
   <energy>
    <i name="e_fr_energy">    -13.66572446 </i>
    <i name="e_wo_entrp">    -13.66572446 </i>
    <i name="e_0_energy">    -13.66572446 </i>
   </energy>
  </scstep>
  <scstep>
   <time name="total">  103.54  103.54</time>
   <energy>
    <i name="e_fr_energy">    -13.66572447 </i>
    <i name="e_wo_entrp">    -13.66572447 </i>
    <i name="e_0_energy">    -13.66572447 </i>
   </energy>
  </scstep>
  <scstep>
   <time name="total">  106.00  106.00</time>
   <energy>
    <i name="e_fr_energy">    -13.66572447 </i>
    <i name="e_wo_entrp">    -13.66572447 </i>
    <i name="e_0_energy">    -13.66572447 </i>
   </energy>
  </scstep>
  <scstep>
   <time name="total">  104.31  104.31</time>
   <energy>
    <i name="e_fr_energy">    -13.66572447 </i>
    <i name="e_wo_entrp">    -13.66572447 </i>
    <i name="e_0_energy">    -13.66572447 </i>
   </energy>
  </scstep>
  <scstep>
   <time name="total">  104.55  104.55</time>
   <energy>
    <i name="e_fr_energy">    -13.66572447 </i>
    <i name="e_wo_entrp">    -13.66572447 </i>
    <i name="e_0_energy">    -13.66572447 </i>
   </energy>
  </scstep>
  <scstep>
   <time name="total">  104.34  104.35</time>
   <energy>
    <i name="e_fr_energy">    -13.66572447 </i>
    <i name="e_wo_entrp">    -13.66572447 </i>
    <i name="e_0_energy">    -13.66572447 </i>
   </energy>
  </scstep>
  <scstep>
   <time name="total">  105.54  105.54</time>
   <energy>
    <i name="e_fr_energy">    -13.66572447 </i>
    <i name="e_wo_entrp">    -13.66572447 </i>
    <i name="e_0_energy">    -13.66572447 </i>
   </energy>
  </scstep>
  <varray name="epsilon_rpa" >
   <v>       5.51296556       0.00000112       0.00000060 </v>
   <v>       0.00000128       5.56228386      -0.00000040 </v>
   <v>      -0.00000014       0.00000145       5.81981444 </v>
  </varray>
  <kpoints>
   <generation param="Gamma">
    <v type="int" name="divisions">       4        4        4 </v>
    <v name="usershift">      0.00000000       0.00000000       0.00000000 </v>
    <v name="genvec1">      0.25000000       0.00000000       0.00000000 </v>
    <v name="genvec2">      0.00000000       0.25000000       0.00000000 </v>
    <v name="genvec3">      0.00000000       0.00000000       0.25000000 </v>
    <v name="shift">      0.00000000       0.00000000       0.00000000 </v>
   </generation>
   <varray name="kpointlist" >
    <v>       0.00000000       0.00000000       0.00000000 </v>
    <v>       0.25000000       0.00000000       0.00000000 </v>
    <v>       0.50000000       0.00000000       0.00000000 </v>
    <v>       0.00000000       0.25000000       0.00000000 </v>
    <v>       0.25000000       0.25000000       0.00000000 </v>
    <v>       0.50000000       0.25000000       0.00000000 </v>
    <v>      -0.25000000       0.25000000       0.00000000 </v>
    <v>       0.00000000       0.50000000       0.00000000 </v>
    <v>       0.25000000       0.50000000       0.00000000 </v>
    <v>       0.50000000       0.50000000       0.00000000 </v>
    <v>       0.00000000       0.00000000       0.25000000 </v>
    <v>       0.25000000       0.00000000       0.25000000 </v>
    <v>       0.50000000       0.00000000       0.25000000 </v>
    <v>      -0.25000000       0.00000000       0.25000000 </v>
    <v>       0.00000000       0.25000000       0.25000000 </v>
    <v>       0.25000000       0.25000000       0.25000000 </v>
    <v>       0.50000000       0.25000000       0.25000000 </v>
    <v>      -0.25000000       0.25000000       0.25000000 </v>
    <v>       0.00000000       0.50000000       0.25000000 </v>
    <v>       0.25000000       0.50000000       0.25000000 </v>
    <v>       0.50000000       0.50000000       0.25000000 </v>
    <v>      -0.25000000       0.50000000       0.25000000 </v>
    <v>       0.00000000      -0.25000000       0.25000000 </v>
    <v>       0.25000000      -0.25000000       0.25000000 </v>
    <v>       0.50000000      -0.25000000       0.25000000 </v>
    <v>      -0.25000000      -0.25000000       0.25000000 </v>
    <v>       0.00000000       0.00000000       0.50000000 </v>
    <v>       0.25000000       0.00000000       0.50000000 </v>
    <v>       0.50000000       0.00000000       0.50000000 </v>
    <v>       0.00000000       0.25000000       0.50000000 </v>
    <v>       0.25000000       0.25000000       0.50000000 </v>
    <v>       0.50000000       0.25000000       0.50000000 </v>
    <v>      -0.25000000       0.25000000       0.50000000 </v>
    <v>       0.00000000       0.50000000       0.50000000 </v>
    <v>       0.25000000       0.50000000       0.50000000 </v>
    <v>       0.50000000       0.50000000       0.50000000 </v>
   </varray>
   <varray name="weights" >
    <v>       0.01562500 </v>
    <v>       0.03125000 </v>
    <v>       0.01562500 </v>
    <v>       0.03125000 </v>
    <v>       0.03125000 </v>
    <v>       0.03125000 </v>
    <v>       0.03125000 </v>
    <v>       0.01562500 </v>
    <v>       0.03125000 </v>
    <v>       0.01562500 </v>
    <v>       0.03125000 </v>
    <v>       0.03125000 </v>
    <v>       0.03125000 </v>
    <v>       0.03125000 </v>
    <v>       0.03125000 </v>
    <v>       0.03125000 </v>
    <v>       0.03125000 </v>
    <v>       0.03125000 </v>
    <v>       0.03125000 </v>
    <v>       0.03125000 </v>
    <v>       0.03125000 </v>
    <v>       0.03125000 </v>
    <v>       0.03125000 </v>
    <v>       0.03125000 </v>
    <v>       0.03125000 </v>
    <v>       0.03125000 </v>
    <v>       0.01562500 </v>
    <v>       0.03125000 </v>
    <v>       0.01562500 </v>
    <v>       0.03125000 </v>
    <v>       0.03125000 </v>
    <v>       0.03125000 </v>
    <v>       0.03125000 </v>
    <v>       0.01562500 </v>
    <v>       0.03125000 </v>
    <v>       0.01562500 </v>
   </varray>
  </kpoints>
  <scstep>
   <time name="total">  118.18  118.18</time>
   <energy>
    <i name="e_fr_energy">    -12.13901299 </i>
    <i name="e_wo_entrp">    -12.13901299 </i>
    <i name="e_0_energy">    -12.13901299 </i>
   </energy>
  </scstep>
  <scstep>
   <time name="total">  108.78  108.79</time>
   <energy>
    <i name="e_fr_energy">    -12.78606527 </i>
    <i name="e_wo_entrp">    -12.78606527 </i>
    <i name="e_0_energy">    -12.78606527 </i>
   </energy>
  </scstep>
  <scstep>
   <time name="total">  125.23  125.24</time>
   <energy>
    <i name="e_fr_energy">    -11.87827516 </i>
    <i name="e_wo_entrp">    -11.87827516 </i>
    <i name="e_0_energy">    -11.87827516 </i>
   </energy>
  </scstep>
  <scstep>
   <time name="total">  138.48  138.48</time>
   <energy>
    <i name="e_fr_energy">    -12.02714472 </i>
    <i name="e_wo_entrp">    -12.02714472 </i>
    <i name="e_0_energy">    -12.02714472 </i>
   </energy>
  </scstep>
  <scstep>
   <time name="total">  143.61  143.61</time>
   <energy>
    <i name="e_fr_energy">    -12.25163273 </i>
    <i name="e_wo_entrp">    -12.25163273 </i>
    <i name="e_0_energy">    -12.25163273 </i>
   </energy>
  </scstep>
  <scstep>
   <time name="total">  141.43  141.43</time>
   <energy>
    <i name="e_fr_energy">    -12.27984543 </i>
    <i name="e_wo_entrp">    -12.27984543 </i>
    <i name="e_0_energy">    -12.27984543 </i>
   </energy>
  </scstep>
  <scstep>
   <time name="total">  145.76  145.76</time>
   <energy>
    <i name="e_fr_energy">    -12.28707733 </i>
    <i name="e_wo_entrp">    -12.28707733 </i>
    <i name="e_0_energy">    -12.28707733 </i>
   </energy>
  </scstep>
  <scstep>
   <time name="total">  142.13  142.13</time>
   <energy>
    <i name="e_fr_energy">    -12.29378659 </i>
    <i name="e_wo_entrp">    -12.29378659 </i>
    <i name="e_0_energy">    -12.29378659 </i>
   </energy>
  </scstep>
  <scstep>
   <time name="total">  152.90  152.91</time>
   <energy>
    <i name="e_fr_energy">    -12.29203750 </i>
    <i name="e_wo_entrp">    -12.29203750 </i>
    <i name="e_0_energy">    -12.29203750 </i>
   </energy>
  </scstep>
  <scstep>
   <time name="total">  141.13  141.13</time>
   <energy>
    <i name="e_fr_energy">    -12.29250737 </i>
    <i name="e_wo_entrp">    -12.29250737 </i>
    <i name="e_0_energy">    -12.29250737 </i>
   </energy>
  </scstep>
  <scstep>
   <time name="total">  157.02  157.02</time>
   <energy>
    <i name="e_fr_energy">    -12.29239386 </i>
    <i name="e_wo_entrp">    -12.29239386 </i>
    <i name="e_0_energy">    -12.29239386 </i>
   </energy>
  </scstep>
  <scstep>
   <time name="total">  150.04  150.04</time>
   <energy>
    <i name="e_fr_energy">    -12.29286559 </i>
    <i name="e_wo_entrp">    -12.29286559 </i>
    <i name="e_0_energy">    -12.29286559 </i>
   </energy>
  </scstep>
  <scstep>
   <time name="total">  155.51  155.52</time>
   <energy>
    <i name="e_fr_energy">    -12.29191611 </i>
    <i name="e_wo_entrp">    -12.29191611 </i>
    <i name="e_0_energy">    -12.29191611 </i>
   </energy>
  </scstep>
  <scstep>
   <time name="total">  162.33  162.33</time>
   <energy>
    <i name="e_fr_energy">    -12.29284981 </i>
    <i name="e_wo_entrp">    -12.29284981 </i>
    <i name="e_0_energy">    -12.29284981 </i>
   </energy>
  </scstep>
  <scstep>
   <time name="total">  165.95  165.96</time>
   <energy>
    <i name="e_fr_energy">    -12.29181334 </i>
    <i name="e_wo_entrp">    -12.29181334 </i>
    <i name="e_0_energy">    -12.29181334 </i>
   </energy>
  </scstep>
  <scstep>
   <time name="total">  164.28  164.28</time>
   <energy>
    <i name="e_fr_energy">    -12.29282982 </i>
    <i name="e_wo_entrp">    -12.29282982 </i>
    <i name="e_0_energy">    -12.29282982 </i>
   </energy>
  </scstep>
  <scstep>
   <time name="total">  163.74  163.74</time>
   <energy>
    <i name="e_fr_energy">    -12.29176776 </i>
    <i name="e_wo_entrp">    -12.29176776 </i>
    <i name="e_0_energy">    -12.29176776 </i>
   </energy>
  </scstep>
  <scstep>
   <time name="total">  162.98  162.99</time>
   <energy>
    <i name="e_fr_energy">    -12.29279045 </i>
    <i name="e_wo_entrp">    -12.29279045 </i>
    <i name="e_0_energy">    -12.29279045 </i>
   </energy>
  </scstep>
  <scstep>
   <time name="total">  163.59  163.59</time>
   <energy>
    <i name="e_fr_energy">    -12.29175154 </i>
    <i name="e_wo_entrp">    -12.29175154 </i>
    <i name="e_0_energy">    -12.29175154 </i>
   </energy>
  </scstep>
  <scstep>
   <time name="total">  163.53  163.53</time>
   <energy>
    <i name="e_fr_energy">    -12.29277390 </i>
    <i name="e_wo_entrp">    -12.29277390 </i>
    <i name="e_0_energy">    -12.29277390 </i>
   </energy>
  </scstep>
  <scstep>
   <time name="total">  161.46  161.46</time>
   <energy>
    <i name="e_fr_energy">    -12.29173856 </i>
    <i name="e_wo_entrp">    -12.29173856 </i>
    <i name="e_0_energy">    -12.29173856 </i>
   </energy>
  </scstep>
  <scstep>
   <time name="total">  163.50  163.50</time>
   <energy>
    <i name="e_fr_energy">    -12.29274635 </i>
    <i name="e_wo_entrp">    -12.29274635 </i>
    <i name="e_0_energy">    -12.29274635 </i>
   </energy>
  </scstep>
  <scstep>
   <time name="total">  164.55  164.55</time>
   <energy>
    <i name="e_fr_energy">    -12.29173567 </i>
    <i name="e_wo_entrp">    -12.29173567 </i>
    <i name="e_0_energy">    -12.29173567 </i>
   </energy>
  </scstep>
  <scstep>
   <time name="total">  163.79  163.79</time>
   <energy>
    <i name="e_fr_energy">    -12.29272230 </i>
    <i name="e_wo_entrp">    -12.29272230 </i>
    <i name="e_0_energy">    -12.29272230 </i>
   </energy>
  </scstep>
  <scstep>
   <time name="total">  161.18  161.19</time>
   <energy>
    <i name="e_fr_energy">    -12.29174446 </i>
    <i name="e_wo_entrp">    -12.29174446 </i>
    <i name="e_0_energy">    -12.29174446 </i>
   </energy>
  </scstep>
  <scstep>
   <time name="total">  163.19  163.19</time>
   <energy>
    <i name="e_fr_energy">    -12.29269888 </i>
    <i name="e_wo_entrp">    -12.29269888 </i>
    <i name="e_0_energy">    -12.29269888 </i>
   </energy>
  </scstep>
  <scstep>
   <time name="total">  162.96  162.96</time>
   <energy>
    <i name="e_fr_energy">    -12.29174912 </i>
    <i name="e_wo_entrp">    -12.29174912 </i>
    <i name="e_0_energy">    -12.29174912 </i>
   </energy>
  </scstep>
  <scstep>
   <time name="total">  161.72  161.73</time>
   <energy>
    <i name="e_fr_energy">    -12.29267450 </i>
    <i name="e_wo_entrp">    -12.29267450 </i>
    <i name="e_0_energy">    -12.29267450 </i>
   </energy>
  </scstep>
  <kpoints>
   <generation param="Gamma">
    <v type="int" name="divisions">       4        4        4 </v>
    <v name="usershift">      0.00000000       0.00000000       0.00000000 </v>
    <v name="genvec1">      0.25000000       0.00000000       0.00000000 </v>
    <v name="genvec2">      0.00000000       0.25000000       0.00000000 </v>
    <v name="genvec3">      0.00000000       0.00000000       0.25000000 </v>
    <v name="shift">      0.00000000       0.00000000       0.00000000 </v>
   </generation>
   <varray name="kpointlist" >
    <v>       0.00000000       0.00000000       0.00000000 </v>
    <v>       0.25000000       0.00000000       0.00000000 </v>
    <v>       0.50000000       0.00000000       0.00000000 </v>
    <v>       0.00000000       0.25000000       0.00000000 </v>
    <v>       0.25000000       0.25000000       0.00000000 </v>
    <v>       0.50000000       0.25000000       0.00000000 </v>
    <v>      -0.25000000       0.25000000       0.00000000 </v>
    <v>       0.00000000       0.50000000       0.00000000 </v>
    <v>       0.25000000       0.50000000       0.00000000 </v>
    <v>       0.50000000       0.50000000       0.00000000 </v>
    <v>       0.00000000       0.00000000       0.25000000 </v>
    <v>       0.25000000       0.00000000       0.25000000 </v>
    <v>       0.50000000       0.00000000       0.25000000 </v>
    <v>      -0.25000000       0.00000000       0.25000000 </v>
    <v>       0.00000000       0.25000000       0.25000000 </v>
    <v>       0.25000000       0.25000000       0.25000000 </v>
    <v>       0.50000000       0.25000000       0.25000000 </v>
    <v>      -0.25000000       0.25000000       0.25000000 </v>
    <v>       0.00000000       0.50000000       0.25000000 </v>
    <v>       0.25000000       0.50000000       0.25000000 </v>
    <v>       0.50000000       0.50000000       0.25000000 </v>
    <v>      -0.25000000       0.50000000       0.25000000 </v>
    <v>       0.00000000      -0.25000000       0.25000000 </v>
    <v>       0.25000000      -0.25000000       0.25000000 </v>
    <v>       0.50000000      -0.25000000       0.25000000 </v>
    <v>      -0.25000000      -0.25000000       0.25000000 </v>
    <v>       0.00000000       0.00000000       0.50000000 </v>
    <v>       0.25000000       0.00000000       0.50000000 </v>
    <v>       0.50000000       0.00000000       0.50000000 </v>
    <v>       0.00000000       0.25000000       0.50000000 </v>
    <v>       0.25000000       0.25000000       0.50000000 </v>
    <v>       0.50000000       0.25000000       0.50000000 </v>
    <v>      -0.25000000       0.25000000       0.50000000 </v>
    <v>       0.00000000       0.50000000       0.50000000 </v>
    <v>       0.25000000       0.50000000       0.50000000 </v>
    <v>       0.50000000       0.50000000       0.50000000 </v>
   </varray>
   <varray name="weights" >
    <v>       0.01562500 </v>
    <v>       0.03125000 </v>
    <v>       0.01562500 </v>
    <v>       0.03125000 </v>
    <v>       0.03125000 </v>
    <v>       0.03125000 </v>
    <v>       0.03125000 </v>
    <v>       0.01562500 </v>
    <v>       0.03125000 </v>
    <v>       0.01562500 </v>
    <v>       0.03125000 </v>
    <v>       0.03125000 </v>
    <v>       0.03125000 </v>
    <v>       0.03125000 </v>
    <v>       0.03125000 </v>
    <v>       0.03125000 </v>
    <v>       0.03125000 </v>
    <v>       0.03125000 </v>
    <v>       0.03125000 </v>
    <v>       0.03125000 </v>
    <v>       0.03125000 </v>
    <v>       0.03125000 </v>
    <v>       0.03125000 </v>
    <v>       0.03125000 </v>
    <v>       0.03125000 </v>
    <v>       0.03125000 </v>
    <v>       0.01562500 </v>
    <v>       0.03125000 </v>
    <v>       0.01562500 </v>
    <v>       0.03125000 </v>
    <v>       0.03125000 </v>
    <v>       0.03125000 </v>
    <v>       0.03125000 </v>
    <v>       0.01562500 </v>
    <v>       0.03125000 </v>
    <v>       0.01562500 </v>
   </varray>
  </kpoints>
  <scstep>
   <time name="total">  116.39  116.39</time>
   <energy>
    <i name="e_fr_energy">    -12.23568465 </i>
    <i name="e_wo_entrp">    -12.23568465 </i>
    <i name="e_0_energy">    -12.23568465 </i>
   </energy>
  </scstep>
  <scstep>
   <time name="total">  107.91  107.92</time>
   <energy>
    <i name="e_fr_energy">    -12.92473301 </i>
    <i name="e_wo_entrp">    -12.92473301 </i>
    <i name="e_0_energy">    -12.92473301 </i>
   </energy>
  </scstep>
  <scstep>
   <time name="total">  122.96  122.96</time>
   <energy>
    <i name="e_fr_energy">    -11.99924595 </i>
    <i name="e_wo_entrp">    -11.99924595 </i>
    <i name="e_0_energy">    -11.99924595 </i>
   </energy>
  </scstep>
  <scstep>
   <time name="total">  134.52  134.52</time>
   <energy>
    <i name="e_fr_energy">    -12.11444089 </i>
    <i name="e_wo_entrp">    -12.11444089 </i>
    <i name="e_0_energy">    -12.11444089 </i>
   </energy>
  </scstep>
  <scstep>
   <time name="total">  125.25  125.28</time>
   <energy>
    <i name="e_fr_energy">    -12.35888058 </i>
    <i name="e_wo_entrp">    -12.35888058 </i>
    <i name="e_0_energy">    -12.35888058 </i>
   </energy>
  </scstep>
  <scstep>
   <time name="total">  123.39  123.39</time>
   <energy>
    <i name="e_fr_energy">    -12.40953015 </i>
    <i name="e_wo_entrp">    -12.40953015 </i>
    <i name="e_0_energy">    -12.40953015 </i>
   </energy>
  </scstep>
  <scstep>
   <time name="total">  127.03  127.03</time>
   <energy>
    <i name="e_fr_energy">    -12.42205559 </i>
    <i name="e_wo_entrp">    -12.42205559 </i>
    <i name="e_0_energy">    -12.42205559 </i>
   </energy>
  </scstep>
  <scstep>
   <time name="total">  122.57  122.57</time>
   <energy>
    <i name="e_fr_energy">    -12.43140210 </i>
    <i name="e_wo_entrp">    -12.43140210 </i>
    <i name="e_0_energy">    -12.43140210 </i>
   </energy>
  </scstep>
  <scstep>
   <time name="total">  129.06  129.06</time>
   <energy>
    <i name="e_fr_energy">    -12.42884570 </i>
    <i name="e_wo_entrp">    -12.42884570 </i>
    <i name="e_0_energy">    -12.42884570 </i>
   </energy>
  </scstep>
  <scstep>
   <time name="total">  126.88  126.88</time>
   <energy>
    <i name="e_fr_energy">    -12.43545435 </i>
    <i name="e_wo_entrp">    -12.43545435 </i>
    <i name="e_0_energy">    -12.43545435 </i>
   </energy>
  </scstep>
  <scstep>
   <time name="total">  136.09  136.09</time>
   <energy>
    <i name="e_fr_energy">    -12.42853020 </i>
    <i name="e_wo_entrp">    -12.42853020 </i>
    <i name="e_0_energy">    -12.42853020 </i>
   </energy>
  </scstep>
  <scstep>
   <time name="total">  129.11  129.11</time>
   <energy>
    <i name="e_fr_energy">    -12.43118024 </i>
    <i name="e_wo_entrp">    -12.43118024 </i>
    <i name="e_0_energy">    -12.43118024 </i>
   </energy>
  </scstep>
  <scstep>
   <time name="total">  135.73  135.73</time>
   <energy>
    <i name="e_fr_energy">    -12.42301754 </i>
    <i name="e_wo_entrp">    -12.42301754 </i>
    <i name="e_0_energy">    -12.42301754 </i>
   </energy>
  </scstep>
  <scstep>
   <time name="total">  139.38  139.38</time>
   <energy>
    <i name="e_fr_energy">    -12.42700066 </i>
    <i name="e_wo_entrp">    -12.42700066 </i>
    <i name="e_0_energy">    -12.42700066 </i>
   </energy>
  </scstep>
  <scstep>
   <time name="total">  145.10  145.10</time>
   <energy>
    <i name="e_fr_energy">    -12.42318555 </i>
    <i name="e_wo_entrp">    -12.42318555 </i>
    <i name="e_0_energy">    -12.42318555 </i>
   </energy>
  </scstep>
  <scstep>
   <time name="total">  144.51  144.51</time>
   <energy>
    <i name="e_fr_energy">    -12.42834961 </i>
    <i name="e_wo_entrp">    -12.42834961 </i>
    <i name="e_0_energy">    -12.42834961 </i>
   </energy>
  </scstep>
  <scstep>
   <time name="total">  146.56  146.56</time>
   <energy>
    <i name="e_fr_energy">    -12.42314595 </i>
    <i name="e_wo_entrp">    -12.42314595 </i>
    <i name="e_0_energy">    -12.42314595 </i>
   </energy>
  </scstep>
  <scstep>
   <time name="total">  145.04  145.04</time>
   <energy>
    <i name="e_fr_energy">    -12.42785126 </i>
    <i name="e_wo_entrp">    -12.42785126 </i>
    <i name="e_0_energy">    -12.42785126 </i>
   </energy>
  </scstep>
  <scstep>
   <time name="total">  145.45  145.45</time>
   <energy>
    <i name="e_fr_energy">    -12.42388339 </i>
    <i name="e_wo_entrp">    -12.42388339 </i>
    <i name="e_0_energy">    -12.42388339 </i>
   </energy>
  </scstep>
  <scstep>
   <time name="total">  145.41  145.41</time>
   <energy>
    <i name="e_fr_energy">    -12.42748312 </i>
    <i name="e_wo_entrp">    -12.42748312 </i>
    <i name="e_0_energy">    -12.42748312 </i>
   </energy>
  </scstep>
  <scstep>
   <time name="total">  145.38  145.38</time>
   <energy>
    <i name="e_fr_energy">    -12.42409067 </i>
    <i name="e_wo_entrp">    -12.42409067 </i>
    <i name="e_0_energy">    -12.42409067 </i>
   </energy>
  </scstep>
  <scstep>
   <time name="total">  144.68  144.68</time>
   <energy>
    <i name="e_fr_energy">    -12.42725663 </i>
    <i name="e_wo_entrp">    -12.42725663 </i>
    <i name="e_0_energy">    -12.42725663 </i>
   </energy>
  </scstep>
  <scstep>
   <time name="total">  145.58  145.58</time>
   <energy>
    <i name="e_fr_energy">    -12.42431366 </i>
    <i name="e_wo_entrp">    -12.42431366 </i>
    <i name="e_0_energy">    -12.42431366 </i>
   </energy>
  </scstep>
  <scstep>
   <time name="total">  144.87  144.87</time>
   <energy>
    <i name="e_fr_energy">    -12.42695285 </i>
    <i name="e_wo_entrp">    -12.42695285 </i>
    <i name="e_0_energy">    -12.42695285 </i>
   </energy>
  </scstep>
  <kpoints>
   <generation param="Gamma">
    <v type="int" name="divisions">       4        4        4 </v>
    <v name="usershift">      0.00000000       0.00000000       0.00000000 </v>
    <v name="genvec1">      0.25000000       0.00000000       0.00000000 </v>
    <v name="genvec2">      0.00000000       0.25000000       0.00000000 </v>
    <v name="genvec3">      0.00000000       0.00000000       0.25000000 </v>
    <v name="shift">      0.00000000       0.00000000       0.00000000 </v>
   </generation>
   <varray name="kpointlist" >
    <v>       0.00000000       0.00000000       0.00000000 </v>
    <v>       0.25000000       0.00000000       0.00000000 </v>
    <v>       0.50000000       0.00000000       0.00000000 </v>
    <v>       0.00000000       0.25000000       0.00000000 </v>
    <v>       0.25000000       0.25000000       0.00000000 </v>
    <v>       0.50000000       0.25000000       0.00000000 </v>
    <v>      -0.25000000       0.25000000       0.00000000 </v>
    <v>       0.00000000       0.50000000       0.00000000 </v>
    <v>       0.25000000       0.50000000       0.00000000 </v>
    <v>       0.50000000       0.50000000       0.00000000 </v>
    <v>       0.00000000       0.00000000       0.25000000 </v>
    <v>       0.25000000       0.00000000       0.25000000 </v>
    <v>       0.50000000       0.00000000       0.25000000 </v>
    <v>      -0.25000000       0.00000000       0.25000000 </v>
    <v>       0.00000000       0.25000000       0.25000000 </v>
    <v>       0.25000000       0.25000000       0.25000000 </v>
    <v>       0.50000000       0.25000000       0.25000000 </v>
    <v>      -0.25000000       0.25000000       0.25000000 </v>
    <v>       0.00000000       0.50000000       0.25000000 </v>
    <v>       0.25000000       0.50000000       0.25000000 </v>
    <v>       0.50000000       0.50000000       0.25000000 </v>
    <v>      -0.25000000       0.50000000       0.25000000 </v>
    <v>       0.00000000      -0.25000000       0.25000000 </v>
    <v>       0.25000000      -0.25000000       0.25000000 </v>
    <v>       0.50000000      -0.25000000       0.25000000 </v>
    <v>      -0.25000000      -0.25000000       0.25000000 </v>
[...]
       <r>    3.4190    0.0000 </r>
       <r>    3.4190    0.0000 </r>
       <r>    3.4190    0.0000 </r>
       <r>    3.4190    0.0000 </r>
       <r>    4.5330    0.0000 </r>
       <r>    4.5330    0.0000 </r>
       <r>    4.5330    0.0000 </r>
       <r>    4.5330    0.0000 </r>
       <r>    5.6462    0.0000 </r>
       <r>    5.6462    0.0000 </r>
       <r>    5.6462    0.0000 </r>
       <r>    5.6462    0.0000 </r>
       <r>    5.9205    0.0000 </r>
       <r>    5.9205    0.0000 </r>
       <r>    5.9205    0.0000 </r>
       <r>    5.9205    0.0000 </r>
       <r>    6.8391    0.0000 </r>
       <r>    6.8391    0.0000 </r>
       <r>    6.8391    0.0000 </r>
       <r>    6.8391    0.0000 </r>
       <r>    7.2089    0.0000 </r>
       <r>    7.2089    0.0000 </r>
       <r>    7.2089    0.0000 </r>
       <r>    7.2089    0.0000 </r>
       <r>    7.3037    0.0000 </r>
       <r>    7.3037    0.0000 </r>
       <r>    7.3037    0.0000 </r>
       <r>    7.3037    0.0000 </r>
      </set>
     </set>
    </set>
   </array>
  </eigenvalues>
  <separator name="orbital magnetization" >
   <v name="MAGDIPOLOUT">      0.00000000      0.00000000      0.00000000</v>
  </separator>
  <dos>
   <i name="efermi">      1.10894366 </i>
   <total>
    <array>
     <dimension dim="1">gridpoints</dimension>
     <dimension dim="2">spin</dimension>
     <field>energy</field>
     <field>total</field>
     <field>integrated</field>
     <set>
      <set comment="spin 1">
       <r>   -19.8085     0.0000     0.0000 </r>
       <r>   -19.7131     0.0000     0.0000 </r>
       <r>   -19.6177     0.0000     0.0000 </r>
       <r>   -19.5223     0.0000     0.0000 </r>
       <r>   -19.4269     0.0000     0.0000 </r>
       <r>   -19.3315     0.0000     0.0000 </r>
       <r>   -19.2361     0.0000     0.0000 </r>
       <r>   -19.1407     0.0000     0.0000 </r>
       <r>   -19.0453     0.0000     0.0000 </r>
       <r>   -18.9499     0.0000     0.0000 </r>
       <r>   -18.8545     0.0000     0.0000 </r>
       <r>   -18.7591     0.0000     0.0000 </r>
       <r>   -18.6637     0.0000     0.0000 </r>
       <r>   -18.5683     0.0000     0.0000 </r>
       <r>   -18.4729    83.8532     8.0000 </r>
       <r>   -18.3775     0.0000     8.0000 </r>
       <r>   -18.2821     0.0000     8.0000 </r>
       <r>   -18.1867     0.0000     8.0000 </r>
       <r>   -18.0913     0.0000     8.0000 </r>
       <r>   -17.9958     0.0000     8.0000 </r>
       <r>   -17.9004     0.0000     8.0000 </r>
       <r>   -17.8050     0.0000     8.0000 </r>
       <r>   -17.7096     0.0000     8.0000 </r>
       <r>   -17.6142     0.0000     8.0000 </r>
       <r>   -17.5188     0.0000     8.0000 </r>
       <r>   -17.4234     0.0000     8.0000 </r>
       <r>   -17.3280     0.0000     8.0000 </r>
       <r>   -17.2326     0.0000     8.0000 </r>
       <r>   -17.1372     0.0000     8.0000 </r>
       <r>   -17.0418     0.0000     8.0000 </r>
       <r>   -16.9464     0.0000     8.0000 </r>
       <r>   -16.8510     0.0000     8.0000 </r>
       <r>   -16.7556     0.0000     8.0000 </r>
       <r>   -16.6602     0.0000     8.0000 </r>
       <r>   -16.5648     0.0000     8.0000 </r>
       <r>   -16.4694     0.0000     8.0000 </r>
       <r>   -16.3740     0.0000     8.0000 </r>
       <r>   -16.2786     0.0000     8.0000 </r>
       <r>   -16.1832     0.0000     8.0000 </r>
       <r>   -16.0878     0.0000     8.0000 </r>
       <r>   -15.9923     0.0000     8.0000 </r>
       <r>   -15.8969     0.0000     8.0000 </r>
       <r>   -15.8015     0.0000     8.0000 </r>
       <r>   -15.7061     0.0000     8.0000 </r>
       <r>   -15.6107     0.0000     8.0000 </r>
       <r>   -15.5153     0.0000     8.0000 </r>
       <r>   -15.4199     9.5964     8.9155 </r>
       <r>   -15.3245   332.8714    48.0000 </r>
       <r>   -15.2291     0.0000    48.0000 </r>
       <r>   -15.1337     0.0000    48.0000 </r>
       <r>   -15.0383     0.0000    48.0000 </r>
       <r>   -14.9429     0.0000    48.0000 </r>
       <r>   -14.8475     0.0000    48.0000 </r>
       <r>   -14.7521     0.0000    48.0000 </r>
       <r>   -14.6567     0.0000    48.0000 </r>
       <r>   -14.5613     0.0000    48.0000 </r>
       <r>   -14.4659     0.0000    48.0000 </r>
       <r>   -14.3705     0.0000    48.0000 </r>
       <r>   -14.2751     0.0000    48.0000 </r>
       <r>   -14.1797     0.0000    48.0000 </r>
       <r>   -14.0843     0.0000    48.0000 </r>
       <r>   -13.9889     0.0000    48.0000 </r>
       <r>   -13.8934     0.0000    48.0000 </r>
       <r>   -13.7980     0.0000    48.0000 </r>
       <r>   -13.7026     0.0000    48.0000 </r>
       <r>   -13.6072     0.0000    48.0000 </r>
       <r>   -13.5118     0.0000    48.0000 </r>
       <r>   -13.4164     0.0000    48.0000 </r>
       <r>   -13.3210     0.0000    48.0000 </r>
       <r>   -13.2256     0.0000    48.0000 </r>
       <r>   -13.1302     0.0000    48.0000 </r>
       <r>   -13.0348     0.0000    48.0000 </r>
       <r>   -12.9394     0.0000    48.0000 </r>
       <r>   -12.8440     0.0000    48.0000 </r>
       <r>   -12.7486     0.0000    48.0000 </r>
       <r>   -12.6532     0.0000    48.0000 </r>
       <r>   -12.5578     0.0000    48.0000 </r>
       <r>   -12.4624     0.0000    48.0000 </r>
       <r>   -12.3670     0.0000    48.0000 </r>
       <r>   -12.2716     0.0000    48.0000 </r>
       <r>   -12.1762     0.0000    48.0000 </r>
       <r>   -12.0808     0.0000    48.0000 </r>
       <r>   -11.9854     0.0000    48.0000 </r>
       <r>   -11.8899     0.0000    48.0000 </r>
       <r>   -11.7945     0.0000    48.0000 </r>
       <r>   -11.6991     0.0000    48.0000 </r>
       <r>   -11.6037     0.0000    48.0000 </r>
       <r>   -11.5083     0.0024    48.0002 </r>
       <r>   -11.4129    83.8509    56.0000 </r>
       <r>   -11.3175     0.0000    56.0000 </r>
       <r>   -11.2221     0.0000    56.0000 </r>
       <r>   -11.1267     0.0000    56.0000 </r>
       <r>   -11.0313     0.0000    56.0000 </r>
       <r>   -10.9359     0.0000    56.0000 </r>
       <r>   -10.8405     0.0000    56.0000 </r>
       <r>   -10.7451     0.0000    56.0000 </r>
       <r>   -10.6497     0.6161    56.0588 </r>
       <r>   -10.5543    11.1443    57.1573 </r>
       <r>   -10.4589    27.6026    59.9164 </r>
       <r>   -10.3635    25.0633    62.5792 </r>
       <r>   -10.2681    22.3942    64.9492 </r>
       <r>   -10.1727    51.2393    70.9553 </r>
       <r>   -10.0773    59.0656    77.8867 </r>
       <r>    -9.9819    10.4275    80.0000 </r>
       <r>    -9.8864     0.0000    80.0000 </r>
       <r>    -9.7910     0.0000    80.0000 </r>
       <r>    -9.6956     0.0000    80.0000 </r>
       <r>    -9.6002     0.0000    80.0000 </r>
       <r>    -9.5048     0.0000    80.0000 </r>
       <r>    -9.4094     0.0000    80.0000 </r>
       <r>    -9.3140     0.0000    80.0000 </r>
       <r>    -9.2186     0.0000    80.0000 </r>
       <r>    -9.1232     0.0000    80.0000 </r>
       <r>    -9.0278     0.0000    80.0000 </r>
       <r>    -8.9324     0.0000    80.0000 </r>
       <r>    -8.8370     0.0000    80.0000 </r>
       <r>    -8.7416     0.0000    80.0000 </r>
       <r>    -8.6462     0.0000    80.0000 </r>
       <r>    -8.5508     0.0000    80.0000 </r>
       <r>    -8.4554     0.0000    80.0000 </r>
       <r>    -8.3600     0.0000    80.0000 </r>
       <r>    -8.2646     0.0000    80.0000 </r>
       <r>    -8.1692     0.0000    80.0000 </r>
       <r>    -8.0738     0.0000    80.0000 </r>
       <r>    -7.9784     1.4651    80.1398 </r>
       <r>    -7.8829   151.1395    96.0000 </r>
       <r>    -7.7875     0.0000    96.0000 </r>
       <r>    -7.6921     0.0000    96.0000 </r>
       <r>    -7.5967     0.0000    96.0000 </r>
       <r>    -7.5013     0.0000    96.0000 </r>
       <r>    -7.4059     0.0000    96.0000 </r>
       <r>    -7.3105     0.0000    96.0000 </r>
       <r>    -7.2151     0.0000    96.0000 </r>
       <r>    -7.1197     0.0000    96.0000 </r>
       <r>    -7.0243     0.0000    96.0000 </r>
       <r>    -6.9289     0.2957    96.0282 </r>
       <r>    -6.8335     0.8851    96.1157 </r>
       <r>    -6.7381     3.6695    96.5688 </r>
       <r>    -6.6427     2.6972    96.9136 </r>
       <r>    -6.5473     3.8102    97.3955 </r>
       <r>    -6.4519    12.7406    99.0593 </r>
       <r>    -6.3565     6.3643    99.6697 </r>
       <r>    -6.2611     6.8188   100.8383 </r>
       <r>    -6.1657    11.8964   102.0725 </r>
       <r>    -6.0703     7.1287   103.0551 </r>
       <r>    -5.9749     2.6508   103.3467 </r>
       <r>    -5.8795     5.5070   103.9324 </r>
       <r>    -5.7840    82.0327   111.7957 </r>
       <r>    -5.6886     0.6933   111.9724 </r>
       <r>    -5.5932     0.0000   112.0000 </r>
       <r>    -5.4978     0.0000   112.0000 </r>
       <r>    -5.4024     0.0000   112.0000 </r>
       <r>    -5.3070     0.0000   112.0000 </r>
       <r>    -5.2116     0.0000   112.0000 </r>
       <r>    -5.1162     0.0000   112.0000 </r>
       <r>    -5.0208     0.0000   112.0000 </r>
       <r>    -4.9254     0.0000   112.0000 </r>
       <r>    -4.8300     0.0000   112.0000 </r>
       <r>    -4.7346     0.0000   112.0000 </r>
       <r>    -4.6392     0.0000   112.0000 </r>
       <r>    -4.5438     0.0000   112.0000 </r>
       <r>    -4.4484     0.0000   112.0000 </r>
       <r>    -4.3530     0.0000   112.0000 </r>
       <r>    -4.2576     0.0000   112.0000 </r>
       <r>    -4.1622     0.0000   112.0000 </r>
       <r>    -4.0668     0.0000   112.0000 </r>
       <r>    -3.9714     0.0000   112.0000 </r>
       <r>    -3.8760     0.0000   112.0000 </r>
       <r>    -3.7805    36.8160   115.5124 </r>
       <r>    -3.6851    71.2437   128.0000 </r>
       <r>    -3.5897     0.0000   128.0000 </r>
       <r>    -3.4943     0.0000   128.0000 </r>
       <r>    -3.3989     0.0000   128.0000 </r>
       <r>    -3.3035     0.0000   128.0000 </r>
       <r>    -3.2081     0.0000   128.0000 </r>
       <r>    -3.1127     0.0000   128.0000 </r>
       <r>    -3.0173     0.0000   128.0000 </r>
       <r>    -2.9219     0.0000   128.0000 </r>
       <r>    -2.8265     0.0000   128.0000 </r>
       <r>    -2.7311     0.0000   128.0000 </r>
       <r>    -2.6357     0.0000   128.0000 </r>
       <r>    -2.5403     0.0000   128.0000 </r>
       <r>    -2.4449     0.0000   128.0000 </r>
       <r>    -2.3495     0.0000   128.0000 </r>
       <r>    -2.2541     0.0000   128.0000 </r>
       <r>    -2.1587     0.0000   128.0000 </r>
       <r>    -2.0633     0.0000   128.0000 </r>
       <r>    -1.9679     0.1813   128.0173 </r>
       <r>    -1.8725     4.0460   128.4173 </r>
       <r>    -1.7770     7.8496   129.1864 </r>
       <r>    -1.6816    14.0491   131.1224 </r>
       <r>    -1.5862    17.5248   132.9226 </r>
       <r>    -1.4908    19.3916   134.8206 </r>
       <r>    -1.3954     6.7729   135.8964 </r>
       <r>    -1.3000    11.5332   137.1631 </r>
       <r>    -1.2046     9.9762   138.1408 </r>
       <r>    -1.1092     7.1793   138.9349 </r>
       <r>    -1.0138    19.3930   141.4127 </r>
       <r>    -0.9184     7.8973   142.2534 </r>
       <r>    -0.8230     5.2723   142.9416 </r>
       <r>    -0.7276    11.0685   144.3685 </r>
       <r>    -0.6322    40.1366   148.2677 </r>
       <r>    -0.5368    23.3005   151.1936 </r>
       <r>    -0.4414    15.1081   152.9727 </r>
       <r>    -0.3460    28.2271   156.4138 </r>
       <r>    -0.2506    17.7708   158.6330 </r>
       <r>    -0.1552    20.8122   161.2359 </r>
       <r>    -0.0598    36.3932   165.1330 </r>
       <r>     0.0356    50.3344   170.3032 </r>
       <r>     0.1310    38.6723   174.8169 </r>
       <r>     0.2265    44.0944   180.0528 </r>
       <r>     0.3219    61.1261   186.6477 </r>
       <r>     0.4173    33.3599   190.8728 </r>
       <r>     0.5127    37.4795   194.9507 </r>
       <r>     0.6081    27.9988   198.1730 </r>
       <r>     0.7035     7.4900   199.4021 </r>
       <r>     0.7989     3.4832   199.8323 </r>
       <r>     0.8943     1.3010   199.9679 </r>
       <r>     0.9897     0.0000   199.9688 </r>
       <r>     1.0851     0.3275   200.0000 </r>
       <r>     1.1805     0.0000   200.0000 </r>
       <r>     1.2759     0.0000   200.0000 </r>
       <r>     1.3713     0.0000   200.0000 </r>
       <r>     1.4667     0.0000   200.0000 </r>
       <r>     1.5621     0.0000   200.0000 </r>
       <r>     1.6575     0.0000   200.0000 </r>
       <r>     1.7529     0.0000   200.0000 </r>
       <r>     1.8483     0.0000   200.0000 </r>
       <r>     1.9437     0.0000   200.0000 </r>
       <r>     2.0391     0.0000   200.0000 </r>
       <r>     2.1345     0.0000   200.0000 </r>
       <r>     2.2299     0.0000   200.0000 </r>
       <r>     2.3254     0.0000   200.0000 </r>
       <r>     2.4208     0.0000   200.0000 </r>
       <r>     2.5162     0.0000   200.0000 </r>
       <r>     2.6116     0.0000   200.0000 </r>
       <r>     2.7070     0.0000   200.0000 </r>
       <r>     2.8024     0.2162   200.0206 </r>
       <r>     2.8978     0.6109   200.0895 </r>
       <r>     2.9932     1.8684   200.3345 </r>
       <r>     3.0886     0.4520   200.4181 </r>
       <r>     3.1840     8.9369   201.3215 </r>
       <r>     3.2794     3.9588   201.7214 </r>
       <r>     3.3748     5.2698   202.4403 </r>
       <r>     3.4702     9.2503   203.6638 </r>
       <r>     3.5656     5.5305   204.2784 </r>
       <r>     3.6610    12.6713   206.0242 </r>
       <r>     3.7564    12.5416   207.4466 </r>
       <r>     3.8518     6.6279   208.3216 </r>
       <r>     3.9472     5.2406   209.0000 </r>
       <r>     4.0426     0.0000   209.0000 </r>
       <r>     4.1380     0.0000   209.0000 </r>
       <r>     4.2334     0.3245   209.0310 </r>
       <r>     4.3289     3.4407   209.3908 </r>
       <r>     4.4243     9.2604   210.5086 </r>
       <r>     4.5197    10.1043   211.5277 </r>
       <r>     4.6151    13.0960   213.4375 </r>
       <r>     4.7105     6.6299   214.0700 </r>
       <r>     4.8059     7.1953   215.0000 </r>
       <r>     4.9013     0.0000   215.0000 </r>
       <r>     4.9967     0.0000   215.0000 </r>
       <r>     5.0921     0.0000   215.0000 </r>
       <r>     5.1875    10.8056   216.0309 </r>
       <r>     5.2829     4.5124   216.5870 </r>
       <r>     5.3783    19.6191   218.7158 </r>
       <r>     5.4737     8.4820   219.7167 </r>
       <r>     5.5691     9.2089   220.7848 </r>
       <r>     5.6645     8.7643   222.1174 </r>
       <r>     5.7599    11.5021   223.5349 </r>
       <r>     5.8553    15.2152   225.4517 </r>
       <r>     5.9507    12.7426   226.7470 </r>
       <r>     6.0461    11.0398   227.8970 </r>
       <r>     6.1415    16.1590   229.6669 </r>
       <r>     6.2369     8.5046   230.7186 </r>
       <r>     6.3324     7.8927   231.4718 </r>
       <r>     6.4278     4.7420   232.0467 </r>
       <r>     6.5232     9.5380   233.0975 </r>
       <r>     6.6186    10.9398   234.2937 </r>
       <r>     6.7140    12.0874   235.4969 </r>
       <r>     6.8094    23.5798   238.1280 </r>
       <r>     6.9048    17.9791   240.4967 </r>
       <r>     7.0002    21.1758   242.8360 </r>
       <r>     7.0956    19.1628   244.8909 </r>
       <r>     7.1910    20.7427   247.5415 </r>
       <r>     7.2864    35.6362   251.0270 </r>
       <r>     7.3818    22.2110   254.0895 </r>
       <r>     7.4772    15.5482   255.7986 </r>
       <r>     7.5726     1.3102   256.0000 </r>
       <r>     7.6680     0.0000   256.0000 </r>
       <r>     7.7634     0.0000   256.0000 </r>
       <r>     7.8588     0.0000   256.0000 </r>
       <r>     7.9542     0.0000   256.0000 </r>
       <r>     8.0496     0.0000   256.0000 </r>
       <r>     8.1450     0.0000   256.0000 </r>
       <r>     8.2404     0.0000   256.0000 </r>
       <r>     8.3358     0.0000   256.0000 </r>
       <r>     8.4313     0.0000   256.0000 </r>
       <r>     8.5267     0.0000   256.0000 </r>
       <r>     8.6221     0.0000   256.0000 </r>
       <r>     8.7175     0.0000   256.0000 </r>
       <r>     8.8129     0.0000   256.0000 </r>
      </set>
     </set>
    </array>
   </total>
  </dos>
 </calculation>
 <structure name="finalpos" >
  <crystal>
   <varray name="basis" >
    <v>       8.55672534       0.00000000       0.00000000 </v>
    <v>       0.00000000       9.25045929       0.00000000 </v>
    <v>       0.00000000       0.00000000      12.96364900 </v>
   </varray>
   <i name="volume">   1026.11999904 </i>
   <varray name="rec_basis" >
    <v>       0.11686714       0.00000000       0.00000000 </v>
    <v>       0.00000000       0.10810274       0.00000000 </v>
    <v>       0.00000000       0.00000000       0.07713877 </v>
   </varray>
  </crystal>
  <varray name="positions" >
   <v>       0.49426404       0.14297401       0.68537605 </v>
   <v>       0.50573604       0.85702607       0.31462402 </v>
   <v>       0.00573600       0.64297405       0.31462402 </v>
   <v>       0.99426408       0.35702603       0.68537605 </v>
   <v>       0.50573604       0.85702607       0.18537601 </v>
   <v>       0.49426404       0.14297401       0.81462406 </v>
   <v>       0.99426408       0.35702603       0.81462406 </v>
   <v>       0.00573600       0.64297405       0.18537601 </v>
   <v>       0.33805903       0.07863201       0.75000006 </v>
   <v>       0.66194105       0.92136807       0.25000002 </v>
   <v>       0.16194101       0.57863204       0.25000002 </v>
   <v>       0.83805906       0.42136803       0.75000006 </v>
   <v>       0.49477504       0.87988907       0.68076105 </v>
   <v>       0.50522504       0.12011101       0.31923902 </v>
   <v>       0.00522500       0.37988903       0.31923902 </v>
   <v>       0.99477508       0.62011105       0.68076105 </v>
   <v>       0.50522504       0.12011101       0.18076101 </v>
   <v>       0.49477504       0.87988907       0.81923906 </v>
   <v>       0.99477508       0.62011105       0.81923906 </v>
   <v>       0.00522500       0.37988903       0.18076101 </v>
   <v>       0.65984805       0.94966307       0.75000006 </v>
   <v>       0.34015203       0.05033700       0.25000002 </v>
   <v>       0.84015206       0.44966303       0.25000002 </v>
   <v>       0.15984801       0.55033704       0.75000006 </v>
   <v>       0.50000004       0.50000004       0.00000000 </v>
   <v>       0.00000000       0.00000000       0.00000000 </v>
   <v>       0.50000004       0.50000004       0.50000004 </v>
   <v>       0.00000000       0.00000000       0.50000004 </v>
   <v>       0.53235504       0.93783807       0.75000006 </v>
   <v>       0.46764504       0.06216200       0.25000002 </v>
   <v>       0.96764507       0.43783803       0.25000002 </v>
   <v>       0.03235500       0.56216204       0.75000006 </v>
   <v>       0.53773304       0.51259604       0.75000006 </v>
   <v>       0.46226704       0.48740404       0.25000002 </v>
   <v>       0.96226707       0.01259600       0.25000002 </v>
   <v>       0.03773300       0.98740408       0.75000006 </v>
   <v>       0.81606606       0.69283905       0.02214700 </v>
   <v>       0.18393401       0.30716102       0.97785308 </v>
   <v>       0.68393405       0.19283901       0.97785308 </v>
   <v>       0.31606602       0.80716106       0.02214700 </v>
   <v>       0.18393401       0.30716102       0.52214704 </v>
   <v>       0.81606606       0.69283905       0.47785304 </v>
   <v>       0.31606602       0.80716106       0.47785304 </v>
   <v>       0.68393405       0.19283901       0.52214704 </v>
   <v>       0.45960904       0.08486301       0.75000006 </v>
   <v>       0.54039104       0.91513707       0.25000002 </v>
   <v>       0.04039100       0.58486304       0.25000002 </v>
   <v>       0.95960907       0.41513703       0.75000006 </v>
  </varray>
 </structure>
</modeling>
