
     Program PWSCF v.7.1 starts on  3Jan2024 at 15:56: 9 

     This program is part of the open-source Quantum ESPRESSO suite
     for quantum simulation of materials; please cite
         "P. Giannozzi et al., J. Phys.:Condens. Matter 21 395502 (2009);
         "P. Giannozzi et al., J. Phys.:Condens. Matter 29 465901 (2017);
         "P. Giannozzi et al., J. Chem. Phys. 152 154105 (2020);
          URL http://www.quantum-espresso.org", 
     in publications or presentations arising from this work. More details at
     http://www.quantum-espresso.org/quote

     Parallel version (MPI), running on     8 processors

     MPI processes distributed on     1 nodes
     123421 MiB available memory on the printing compute node when the environment starts
 
     Reading input from pw_mp-23291_nscf_k3000_E130.in
Warning: card &IONS ignored
Warning: card / ignored
Warning: card &CELL ignored
Warning: card / ignored

     Current dimensions of program PWSCF are:
     Max number of different atomic species (ntypx) = 10
     Max number of k-points (npk) =  40000
     Max angular momentum in pseudopotentials (lmaxx) =  4

     Atomic positions and unit cell read from directory:
     out/mp-23291.save/
     Atomic positions from file used, from input discarded
 
 
     R & G space division:  proc/nbgrp/npool/nimage =       8
     Subspace diagonalization in iterative solution of the eigenvalue problem:
     a serial algorithm will be used

 
     Parallelization info
     --------------------
     sticks:   dense  smooth     PW     G-vecs:    dense   smooth      PW
     Min         645     645    174                54059    54059    7612
     Max         646     646    175                54062    54062    7615
     Sum        5163    5163   1399               432479   432479   60911
 
     Using Slab Decomposition
 


     bravais-lattice index     =            8
     lattice parameter (alat)  =       8.5945  a.u.
     unit-cell volume          =    2159.3465 (a.u.)^3
     number of atoms/cell      =           12
     number of atomic types    =            2
     number of electrons       =       112.00
     number of Kohn-Sham states=          112
     kinetic-energy cutoff     =     130.0000  Ry
     charge density cutoff     =     520.0000  Ry
     Exchange-correlation= PBE
                           (   1   4   3   4   0   0   0)

     celldm(1)=   8.594524  celldm(2)=   1.686778  celldm(3)=   2.016503
     celldm(4)=   0.000000  celldm(5)=   0.000000  celldm(6)=   0.000000

     crystal axes: (cart. coord. in units of alat)
               a(1) = (   1.000000   0.000000   0.000000 )  
               a(2) = (   0.000000   1.686778   0.000000 )  
               a(3) = (   0.000000   0.000000   2.016503 )  

     reciprocal axes: (cart. coord. in units 2 pi/alat)
               b(1) = (  1.000000  0.000000  0.000000 )  
               b(2) = (  0.000000  0.592846  0.000000 )  
               b(3) = (  0.000000  0.000000  0.495908 )  


     PseudoPot. # 1 for Cl read from file:
     /usr/scratch4/magr4985/MG/devEb/pseudo/SG15/Cl.upf
     MD5 check sum: d09d09b0a9f35bc416b5a5b3d9ab34ee
     Pseudo is Norm-conserving, Zval =  7.0
     Generated using ONCVPSP code by D. R. Hamann
     Using radial grid of  602 points,  4 beta functions with: 
                l(1) =   0
                l(2) =   0
                l(3) =   1
                l(4) =   1

     PseudoPot. # 2 for Pb read from file:
     /usr/scratch4/magr4985/MG/devEb/pseudo/SG15/Pb.upf
     MD5 check sum: 18da7c9819a8d2a15024df9e07e1e14a
     Pseudo is Norm-conserving, Zval = 14.0
     Generated using ONCVPSP code by D. R. Hamann
     Using radial grid of  602 points,  8 beta functions with: 
                l(1) =   0
                l(2) =   0
                l(3) =   1
                l(4) =   1
                l(5) =   2
                l(6) =   2
                l(7) =   3
                l(8) =   3

     atomic species   valence    mass     pseudopotential
        Cl             7.00    35.45300     Cl( 1.00)
        Pb            14.00   207.20000     Pb( 1.00)

      8 Sym. Ops., with inversion, found ( 6 have fractional translation)



   Cartesian axes

     site n.     atom                  positions (alat units)
         1           Pb  tau(   1) = (   0.2500000   0.4447236   1.8339008  )
         2           Pb  tau(   2) = (   0.7500001   1.2420547   0.1826025  )
         3           Pb  tau(   3) = (   0.2500000   1.2881128   1.1908541  )
         4           Pb  tau(   4) = (   0.7500001   0.3986655   0.8256492  )
         5           Cl  tau(   5) = (   0.2500000   0.8143243   0.3178971  )
         6           Cl  tau(   6) = (   0.7500001   0.8724541   1.6986062  )
         7           Cl  tau(   7) = (   0.2500000   1.6577134   0.6903546  )
         8           Cl  tau(   8) = (   0.7500001   0.0290649   1.3261487  )
         9           Cl  tau(   9) = (   0.7500001   1.0820031   0.8522280  )
        10           Cl  tau(  10) = (   0.2500000   0.6047752   1.1642753  )
        11           Cl  tau(  11) = (   0.7500001   0.2386139   0.1560237  )
        12           Cl  tau(  12) = (   0.2500000   1.4481644   1.8604796  )

     number of k points=    72  Gaussian smearing, width (Ry)=  0.0005
                       cart. coord. in units 2pi/alat
        k(    1) = (   0.0000000   0.0000000   0.0000000), wk =   0.0083333
        k(    2) = (   0.0000000   0.0000000   0.1239770), wk =   0.0166667
        k(    3) = (   0.0000000   0.0000000  -0.2479540), wk =   0.0083333
        k(    4) = (   0.0000000   0.0988077   0.0000000), wk =   0.0166667
        k(    5) = (   0.0000000   0.0988077   0.1239770), wk =   0.0333333
        k(    6) = (   0.0000000   0.0988077  -0.2479540), wk =   0.0166667
        k(    7) = (   0.0000000   0.1976154   0.0000000), wk =   0.0166667
        k(    8) = (   0.0000000   0.1976154   0.1239770), wk =   0.0333333
        k(    9) = (   0.0000000   0.1976154  -0.2479540), wk =   0.0166667
        k(   10) = (   0.0000000  -0.2964231   0.0000000), wk =   0.0083333
        k(   11) = (   0.0000000  -0.2964231   0.1239770), wk =   0.0166667
        k(   12) = (   0.0000000  -0.2964231  -0.2479540), wk =   0.0083333
        k(   13) = (   0.1000000   0.0000000   0.0000000), wk =   0.0166667
        k(   14) = (   0.1000000   0.0000000   0.1239770), wk =   0.0333333
        k(   15) = (   0.1000000   0.0000000  -0.2479540), wk =   0.0166667
        k(   16) = (   0.1000000   0.0988077   0.0000000), wk =   0.0333333
        k(   17) = (   0.1000000   0.0988077   0.1239770), wk =   0.0666667
        k(   18) = (   0.1000000   0.0988077  -0.2479540), wk =   0.0333333
        k(   19) = (   0.1000000   0.1976154   0.0000000), wk =   0.0333333
        k(   20) = (   0.1000000   0.1976154   0.1239770), wk =   0.0666667
        k(   21) = (   0.1000000   0.1976154  -0.2479540), wk =   0.0333333
        k(   22) = (   0.1000000  -0.2964231   0.0000000), wk =   0.0166667
        k(   23) = (   0.1000000  -0.2964231   0.1239770), wk =   0.0333333
        k(   24) = (   0.1000000  -0.2964231  -0.2479540), wk =   0.0166667
        k(   25) = (   0.2000000   0.0000000   0.0000000), wk =   0.0166667
        k(   26) = (   0.2000000   0.0000000   0.1239770), wk =   0.0333333
        k(   27) = (   0.2000000   0.0000000  -0.2479540), wk =   0.0166667
        k(   28) = (   0.2000000   0.0988077   0.0000000), wk =   0.0333333
        k(   29) = (   0.2000000   0.0988077   0.1239770), wk =   0.0666667
        k(   30) = (   0.2000000   0.0988077  -0.2479540), wk =   0.0333333
        k(   31) = (   0.2000000   0.1976154   0.0000000), wk =   0.0333333
        k(   32) = (   0.2000000   0.1976154   0.1239770), wk =   0.0666667
        k(   33) = (   0.2000000   0.1976154  -0.2479540), wk =   0.0333333
        k(   34) = (   0.2000000  -0.2964231   0.0000000), wk =   0.0166667
        k(   35) = (   0.2000000  -0.2964231   0.1239770), wk =   0.0333333
        k(   36) = (   0.2000000  -0.2964231  -0.2479540), wk =   0.0166667
        k(   37) = (   0.3000000   0.0000000   0.0000000), wk =   0.0166667
        k(   38) = (   0.3000000   0.0000000   0.1239770), wk =   0.0333333
        k(   39) = (   0.3000000   0.0000000  -0.2479540), wk =   0.0166667
        k(   40) = (   0.3000000   0.0988077   0.0000000), wk =   0.0333333
        k(   41) = (   0.3000000   0.0988077   0.1239770), wk =   0.0666667
        k(   42) = (   0.3000000   0.0988077  -0.2479540), wk =   0.0333333
        k(   43) = (   0.3000000   0.1976154   0.0000000), wk =   0.0333333
        k(   44) = (   0.3000000   0.1976154   0.1239770), wk =   0.0666667
        k(   45) = (   0.3000000   0.1976154  -0.2479540), wk =   0.0333333
        k(   46) = (   0.3000000  -0.2964231   0.0000000), wk =   0.0166667
        k(   47) = (   0.3000000  -0.2964231   0.1239770), wk =   0.0333333
        k(   48) = (   0.3000000  -0.2964231  -0.2479540), wk =   0.0166667
        k(   49) = (   0.4000000   0.0000000   0.0000000), wk =   0.0166667
        k(   50) = (   0.4000000   0.0000000   0.1239770), wk =   0.0333333
        k(   51) = (   0.4000000   0.0000000  -0.2479540), wk =   0.0166667
        k(   52) = (   0.4000000   0.0988077   0.0000000), wk =   0.0333333
        k(   53) = (   0.4000000   0.0988077   0.1239770), wk =   0.0666667
        k(   54) = (   0.4000000   0.0988077  -0.2479540), wk =   0.0333333
        k(   55) = (   0.4000000   0.1976154   0.0000000), wk =   0.0333333
        k(   56) = (   0.4000000   0.1976154   0.1239770), wk =   0.0666667
        k(   57) = (   0.4000000   0.1976154  -0.2479540), wk =   0.0333333
        k(   58) = (   0.4000000  -0.2964231   0.0000000), wk =   0.0166667
        k(   59) = (   0.4000000  -0.2964231   0.1239770), wk =   0.0333333
        k(   60) = (   0.4000000  -0.2964231  -0.2479540), wk =   0.0166667
        k(   61) = (  -0.5000000   0.0000000   0.0000000), wk =   0.0083333
        k(   62) = (  -0.5000000   0.0000000   0.1239770), wk =   0.0166667
        k(   63) = (  -0.5000000   0.0000000  -0.2479540), wk =   0.0083333
        k(   64) = (  -0.5000000   0.0988077   0.0000000), wk =   0.0166667
        k(   65) = (  -0.5000000   0.0988077   0.1239770), wk =   0.0333333
        k(   66) = (  -0.5000000   0.0988077  -0.2479540), wk =   0.0166667
        k(   67) = (  -0.5000000   0.1976154   0.0000000), wk =   0.0166667
        k(   68) = (  -0.5000000   0.1976154   0.1239770), wk =   0.0333333
        k(   69) = (  -0.5000000   0.1976154  -0.2479540), wk =   0.0166667
        k(   70) = (  -0.5000000  -0.2964231   0.0000000), wk =   0.0083333
        k(   71) = (  -0.5000000  -0.2964231   0.1239770), wk =   0.0166667
        k(   72) = (  -0.5000000  -0.2964231  -0.2479540), wk =   0.0083333

     Dense  grid:   432479 G-vectors     FFT dimensions: (  64, 108, 128)

     Estimated max dynamical RAM per process >     937.09 MB

     Estimated total dynamical RAM >       7.32 GB

     The potential is recalculated from file :
     out/mp-23291.save/charge-density

     Starting wfcs are random

     Band Structure Calculation
     Davidson diagonalization with overlap

     ethr =  5.00E-06,  avg # of iterations = 33.2

     total cpu time spent up to now is      673.3 secs

     End of band structure calculation

          k = 0.0000 0.0000 0.0000 ( 54141 PWs)   bands (ev):

   -10.5250 -10.5192 -10.4708 -10.4693 -10.4688 -10.4478 -10.4358 -10.4355
   -10.4351 -10.4314 -10.4310 -10.4285 -10.4282 -10.4267 -10.4239 -10.4212
   -10.4164 -10.4146 -10.4116 -10.4102  -9.0022  -8.6040  -8.3270  -8.3155
    -8.1373  -8.0495  -7.9755  -7.8653  -1.9261  -1.6204  -1.3599  -0.4699
     2.1123   2.2201   2.2678   2.6001   2.7568   2.7592   3.1210   3.1628
     3.4065   3.4151   3.4345   3.6627   3.7204   3.9007   3.9138   3.9157
     3.9238   3.9266   3.9863   4.1829   4.2034   4.4788   4.6006   4.6826
     8.9858   9.1112   9.1261   9.4141   9.6418   9.6646   9.7886   9.8063
     9.8427  10.1788  10.6339  11.0463  12.7131  13.6682  14.0269  14.2695
    14.4266  14.7235  15.0830  15.2442  15.2613  15.7673  15.8689  15.9175
    16.0287  16.0378  16.1292  16.1539  16.5078  16.5217  16.7304  17.0015
    17.3666  17.7555  17.9778  18.2269  18.6892  18.7753  18.9591  19.0799
    19.0979  19.3133  19.8077  19.8131  19.9146  20.0446  20.1907  20.3194
    20.9786  21.0230  21.0937  21.1820  21.3821  21.6084  21.7921  21.8666

          k = 0.0000 0.0000 0.1240 ( 54107 PWs)   bands (ev):

   -10.5240 -10.5199 -10.4715 -10.4694 -10.4654 -10.4513 -10.4349 -10.4346
   -10.4342 -10.4320 -10.4315 -10.4291 -10.4277 -10.4250 -10.4245 -10.4205
   -10.4171 -10.4165 -10.4115 -10.4106  -8.9622  -8.6996  -8.3077  -8.2383
    -8.1689  -8.0874  -7.9383  -7.8737  -1.9059  -1.6835  -1.2154  -0.5915
     2.1281   2.1775   2.1970   2.6067   2.6931   2.8978   3.0065   3.2441
     3.4224   3.4250   3.5464   3.5773   3.5849   3.8167   3.9199   3.9681
     3.9713   3.9978   4.0790   4.2107   4.2499   4.4892   4.5135   4.7136
     8.9440   9.0940   9.2952   9.3819   9.4942   9.5201   9.5696   9.8432
    10.1232  10.3941  10.5052  10.9248  12.8845  13.5937  14.1125  14.1318
    14.5837  14.6341  14.9340  14.9635  15.1537  15.5587  15.7515  15.9252
    16.0713  16.2858  16.3338  16.4080  16.4537  16.8596  16.9493  17.0350
    17.3977  17.9333  18.2043  18.3695  18.4030  18.4468  18.7240  18.8039
    18.9155  19.3079  19.4522  19.7498  20.1633  20.1665  20.2784  20.3597
    20.6134  20.9312  21.1742  21.2342  21.5538  21.9824  22.1391  22.3152

          k = 0.0000 0.0000-0.2480 ( 54110 PWs)   bands (ev):

   -10.5217 -10.5217 -10.4707 -10.4707 -10.4584 -10.4584 -10.4333 -10.4333
   -10.4333 -10.4333 -10.4312 -10.4312 -10.4260 -10.4260 -10.4209 -10.4209
   -10.4187 -10.4187 -10.4112 -10.4112  -8.8508  -8.8508  -8.2435  -8.2435
    -8.1458  -8.1457  -7.8980  -7.8980  -1.8140  -1.8140  -0.8945  -0.8945
     2.1001   2.1001   2.3597   2.3597   2.8391   2.8391   3.1810   3.1810
     3.4351   3.4351   3.4806   3.4806   3.7002   3.7002   3.9517   3.9517
     4.0282   4.0282   4.1340   4.1340   4.4651   4.4651   4.5862   4.5862
     8.9598   8.9598   9.3516   9.3516   9.4658   9.4658   9.7072   9.7072
    10.3999  10.3999  10.5740  10.5740  13.3096  13.3096  14.1177  14.1177
    14.6297  14.6298  14.6932  14.6932  15.4225  15.4226  15.8557  15.8557
    16.1157  16.1157  16.1793  16.1793  17.1841  17.1842  17.3716  17.3716
    17.5307  17.5307  18.1197  18.1197  18.3036  18.3036  18.5456  18.5456
    19.2700  19.2700  19.7067  19.7067  19.8175  19.8175  20.4086  20.4086
    20.8634  20.8634  20.8958  20.8958  21.7962  21.7962  22.4028  22.4029

          k = 0.0000 0.0988 0.0000 ( 54053 PWs)   bands (ev):

   -10.5245 -10.5187 -10.4812 -10.4771 -10.4570 -10.4422 -10.4362 -10.4361
   -10.4344 -10.4320 -10.4317 -10.4279 -10.4270 -10.4251 -10.4249 -10.4205
   -10.4169 -10.4146 -10.4115 -10.4103  -8.9730  -8.5870  -8.4273  -8.3345
    -8.0719  -8.0554  -7.9736  -7.8602  -1.8877  -1.5485  -1.3973  -0.5528
     2.1598   2.2486   2.2691   2.6656   2.6670   2.7956   3.0703   3.1180
     3.1513   3.3851   3.5541   3.5860   3.6476   3.7374   3.9475   3.9730
     4.0020   4.0796   4.0865   4.2509   4.2706   4.5165   4.6192   4.6728
     9.0273   9.0517   9.0741   9.2955   9.5408   9.6819   9.7027   9.8160
     9.9563  10.2095  10.4349  10.9415  12.8503  13.7711  14.2459  14.5182
    14.5389  14.7904  14.9953  15.1946  15.3394  15.6313  15.7225  15.8347
    15.9727  16.0725  16.2757  16.2942  16.5085  16.8843  16.8870  17.0324
    17.1270  17.4562  17.5353  18.4587  18.5224  18.8252  18.9871  19.2315
    19.3839  19.4243  19.6269  19.7128  20.1779  20.3335  20.3865  20.3930
    20.4001  20.6105  20.8166  20.9980  21.7114  21.7240  21.7541  22.0097

          k = 0.0000 0.0988 0.1240 ( 54104 PWs)   bands (ev):

   -10.5234 -10.5193 -10.4805 -10.4776 -10.4551 -10.4450 -10.4357 -10.4341
   -10.4339 -10.4326 -10.4320 -10.4275 -10.4270 -10.4252 -10.4247 -10.4202
   -10.4175 -10.4164 -10.4115 -10.4106  -8.9338  -8.6784  -8.4044  -8.3063
    -8.1028  -8.0394  -7.9470  -7.8707  -1.8600  -1.6148  -1.2628  -0.6707
     2.1565   2.2202   2.2243   2.6477   2.6549   2.8739   2.9460   3.1565
     3.2593   3.3804   3.4787   3.5895   3.6634   3.8370   3.9163   3.9765
     4.0323   4.0595   4.1115   4.2514   4.3624   4.5105   4.5358   4.7116
     8.8563   9.0610   9.1676   9.3275   9.5388   9.5647   9.6459   9.7918
    10.0955  10.2634  10.4928  10.8245  12.9868  13.6852  14.0919  14.4823
    14.6738  14.8206  14.9811  15.0194  15.1673  15.5865  15.6706  15.8561
    16.0283  16.0816  16.2692  16.5244  16.6471  16.6899  17.0541  17.2049
    17.3271  17.6218  17.8705  18.1749  18.2716  18.6068  18.8852  19.0214
    19.1547  19.5586  19.7328  19.7763  20.0150  20.0226  20.3601  20.5025
    20.5176  20.7125  21.0864  21.4207  21.4364  21.9268  21.9563  22.0034

          k = 0.0000 0.0988-0.2480 ( 54080 PWs)   bands (ev):

   -10.5212 -10.5212 -10.4789 -10.4789 -10.4504 -10.4503 -10.4341 -10.4341
   -10.4329 -10.4329 -10.4303 -10.4303 -10.4262 -10.4262 -10.4208 -10.4208
   -10.4190 -10.4189 -10.4112 -10.4111  -8.8250  -8.8250  -8.3447  -8.3446
    -8.0704  -8.0704  -7.9014  -7.9014  -1.7550  -1.7550  -0.9604  -0.9604
     2.1323   2.1323   2.4041   2.4041   2.7649   2.7649   3.1745   3.1745
     3.2619   3.2620   3.4979   3.4979   3.8060   3.8060   3.9742   3.9742
     4.0090   4.0091   4.1919   4.1919   4.5028   4.5028   4.6011   4.6012
     8.8241   8.8241   9.4478   9.4479   9.5326   9.5326   9.5582   9.5582
    10.3894  10.3894  10.5003  10.5003  13.3690  13.3690  14.2086  14.2086
    14.7554  14.7554  14.8629  14.8630  15.4272  15.4272  15.8172  15.8172
    16.0682  16.0682  16.1521  16.1521  17.1291  17.1291  17.2220  17.2220
    17.7467  17.7467  17.8503  17.8503  18.3344  18.3344  18.4879  18.4880
    19.3073  19.3073  19.9871  19.9871  20.1468  20.1468  20.2445  20.2445
    20.9924  20.9924  21.0606  21.0606  21.4988  21.4988  22.1487  22.1488

          k = 0.0000 0.1976 0.0000 ( 54064 PWs)   bands (ev):

   -10.5225 -10.5180 -10.4891 -10.4878 -10.4463 -10.4378 -10.4364 -10.4359
   -10.4328 -10.4323 -10.4319 -10.4279 -10.4273 -10.4268 -10.4200 -10.4197
   -10.4180 -10.4149 -10.4113 -10.4105  -8.8884  -8.5984  -8.5332  -8.3895
    -8.0574  -8.0335  -7.9357  -7.8600  -1.7832  -1.5009  -1.3477  -0.7746
     2.2482   2.2989   2.3917   2.5073   2.7573   2.7979   2.9134   2.9822
     3.1172   3.2697   3.3958   3.3969   3.6516   3.6992   4.0650   4.0674
     4.1108   4.1772   4.1907   4.3339   4.4434   4.5887   4.6579   4.6613
     8.8536   8.8969   9.0995   9.2294   9.3164   9.7244   9.7714   9.9677
     9.9838  10.0990  10.2020  10.6629  13.1068  13.7295  14.6270  14.9198
    14.9399  14.9861  15.0904  15.2911  15.3633  15.4804  15.5697  15.6949
    16.0692  16.1180  16.3660  16.4459  16.6739  16.8593  16.8904  17.0791
    17.2290  17.3394  17.4101  17.7518  18.5064  18.8049  18.8242  18.9854
    19.4368  19.4710  19.4763  19.7286  19.9731  20.2377  20.4586  20.7083
    20.7327  21.0744  21.1480  21.1534  21.5283  21.6020  21.7542  21.9506

          k = 0.0000 0.1976 0.1240 ( 54071 PWs)   bands (ev):

   -10.5217 -10.5185 -10.4888 -10.4880 -10.4449 -10.4382 -10.4372 -10.4339
   -10.4325 -10.4325 -10.4317 -10.4273 -10.4267 -10.4265 -10.4221 -10.4197
   -10.4184 -10.4167 -10.4113 -10.4108  -8.8516  -8.6195  -8.5638  -8.4127
    -8.0474  -7.9793  -7.9489  -7.8732  -1.7349  -1.4257  -1.3900  -0.8813
     2.2145   2.3248   2.3608   2.4973   2.7303   2.7643   2.8549   3.0117
     3.1736   3.2820   3.3496   3.4873   3.7251   3.8245   4.0387   4.0722
     4.1159   4.1408   4.1441   4.2995   4.5131   4.5512   4.6097   4.7148
     8.7486   8.8557   8.9806   9.2739   9.4954   9.6620   9.8403   9.9108
    10.0277  10.0421  10.3450  10.5581  13.2602  13.8159  14.3049  14.8129
    14.9057  15.0167  15.0469  15.1403  15.3917  15.5050  15.5607  15.7881
    15.9174  16.1390  16.2532  16.6320  16.7435  16.7603  17.0826  17.2004
    17.2679  17.3547  17.5352  17.7232  18.4875  18.7286  18.9290  19.1350
    19.1900  19.5522  19.6917  19.7063  20.0371  20.0945  20.4131  20.7468
    20.7608  20.8857  21.1456  21.2274  21.2395  21.4777  21.8099  22.0316

          k = 0.0000 0.1976-0.2480 ( 54020 PWs)   bands (ev):

   -10.5199 -10.5198 -10.4884 -10.4883 -10.4416 -10.4416 -10.4354 -10.4354
   -10.4318 -10.4318 -10.4281 -10.4281 -10.4269 -10.4269 -10.4212 -10.4212
   -10.4193 -10.4193 -10.4112 -10.4111  -8.7504  -8.7504  -8.4919  -8.4919
    -7.9926  -7.9925  -7.9133  -7.9133  -1.5929  -1.5929  -1.1359  -1.1359
     2.2249   2.2249   2.5332   2.5333   2.5793   2.5793   2.9916   2.9917
     3.2164   3.2164   3.4820   3.4820   3.8757   3.8757   4.0444   4.0445
     4.0547   4.0547   4.2166   4.2166   4.5698   4.5698   4.6514   4.6515
     8.6917   8.6917   9.1279   9.1279   9.7179   9.7179   9.7526   9.7526
    10.2432  10.2432  10.2992  10.2992  13.6467  13.6467  14.4092  14.4092
    14.8680  14.8680  14.9552  14.9552  15.5313  15.5313  15.7679  15.7679
    15.8342  15.8342  16.5204  16.5204  17.0522  17.0522  17.0913  17.0914
    17.4528  17.4528  17.5976  17.5976  18.4683  18.4683  19.0010  19.0011
    19.2900  19.2900  19.7958  19.7958  19.9647  19.9647  20.6778  20.6778
    21.0541  21.0541  21.1878  21.1878  21.5260  21.5260  21.8145  21.8145

          k = 0.0000-0.2964 0.0000 ( 54072 PWs)   bands (ev):

   -10.5195 -10.5195 -10.4922 -10.4922 -10.4406 -10.4406 -10.4349 -10.4349
   -10.4319 -10.4318 -10.4303 -10.4303 -10.4274 -10.4274 -10.4190 -10.4190
   -10.4164 -10.4164 -10.4109 -10.4109  -8.7575  -8.7575  -8.4644  -8.4644
    -8.0455  -8.0455  -7.8839  -7.8839  -1.6415  -1.6415  -1.0667  -1.0667
     2.3181   2.3182   2.5186   2.5186   2.6339   2.6339   3.0429   3.0429
     3.0814   3.0814   3.3211   3.3211   3.6688   3.6688   4.1068   4.1068
     4.1682   4.1682   4.3213   4.3213   4.5682   4.5682   4.6778   4.6778
     8.7828   8.7828   9.0673   9.0673   9.6384   9.6384   9.7653   9.7653
    10.1272  10.1272  10.3058  10.3058  13.4167  13.4168  14.9324  14.9324
    15.0672  15.0672  15.3093  15.3093  15.4254  15.4254  15.8276  15.8276
    16.0231  16.0231  16.2630  16.2630  16.9831  16.9831  17.1872  17.1872
    17.2229  17.2229  17.3153  17.3153  18.2643  18.2643  18.8647  18.8647
    19.2525  19.2525  19.6199  19.6199  20.5268  20.5268  20.6868  20.6868
    20.9308  20.9308  21.2782  21.2782  21.3830  21.3830  21.9818  21.9818

          k = 0.0000-0.2964 0.1240 ( 54046 PWs)   bands (ev):

   -10.5193 -10.5193 -10.4922 -10.4922 -10.4397 -10.4397 -10.4350 -10.4350
   -10.4315 -10.4315 -10.4292 -10.4292 -10.4275 -10.4275 -10.4192 -10.4192
   -10.4185 -10.4185 -10.4111 -10.4110  -8.7245  -8.7245  -8.5226  -8.5226
    -8.0066  -8.0066  -7.8977  -7.8977  -1.5638  -1.5638  -1.1579  -1.1579
     2.3172   2.3172   2.5231   2.5231   2.5759   2.5759   2.9520   2.9520
     3.1689   3.1689   3.3782   3.3782   3.7768   3.7768   4.1161   4.1161
     4.1360   4.1360   4.2579   4.2579   4.5675   4.5675   4.6934   4.6934
     8.7232   8.7232   9.0158   9.0158   9.7403   9.7403   9.8196   9.8196
    10.1357  10.1357  10.2198  10.2198  13.6023  13.6023  14.7323  14.7323
    15.0522  15.0522  15.0810  15.0810  15.4713  15.4713  15.6016  15.6016
    16.0744  16.0744  16.6146  16.6146  16.9049  16.9049  17.0474  17.0474
    17.1982  17.1982  17.5173  17.5173  18.4598  18.4598  18.9624  18.9624
    19.5707  19.5707  19.6182  19.6182  20.1824  20.1824  20.2849  20.2849
    20.8102  20.8102  21.4192  21.4192  21.5682  21.5683  22.0959  22.0959

          k = 0.0000-0.2964-0.2480 ( 54060 PWs)   bands (ev):

   -10.5190 -10.5190 -10.4922 -10.4922 -10.4379 -10.4379 -10.4367 -10.4367
   -10.4311 -10.4311 -10.4276 -10.4275 -10.4253 -10.4253 -10.4227 -10.4227
   -10.4194 -10.4194 -10.4112 -10.4112  -8.6466  -8.6466  -8.6220  -8.6220
    -7.9504  -7.9504  -7.9325  -7.9325  -1.3706  -1.3706  -1.3645  -1.3645
     2.3513   2.3513   2.4063   2.4064   2.7213   2.7214   2.7515   2.7515
     3.2681   3.2681   3.4415   3.4415   3.8886   3.8886   4.0828   4.0829
     4.1404   4.1404   4.1609   4.1610   4.6195   4.6195   4.6676   4.6676
     8.6847   8.6847   8.9303   8.9303   9.9149   9.9150   9.9796   9.9796
    10.0193  10.0193  10.0933  10.0933  13.9053  13.9053  14.4431  14.4431
    14.8171  14.8171  15.1962  15.1963  15.3206  15.3206  15.4699  15.4699
    16.1078  16.1078  16.7951  16.7951  17.0998  17.0998  17.1517  17.1517
    17.2207  17.2207  17.4084  17.4085  18.7091  18.7091  18.8324  18.8324
    19.4664  19.4665  19.8206  19.8206  19.8419  19.8419  20.2181  20.2182
    21.0641  21.0641  21.4691  21.4691  21.7356  21.7356  22.1115  22.1115

          k = 0.1000 0.0000 0.0000 ( 54059 PWs)   bands (ev):

   -10.5216 -10.5150 -10.4767 -10.4728 -10.4717 -10.4557 -10.4375 -10.4354
   -10.4344 -10.4313 -10.4302 -10.4298 -10.4270 -10.4257 -10.4251 -10.4213
   -10.4176 -10.4142 -10.4127 -10.4113  -8.9717  -8.5834  -8.3068  -8.2957
    -8.1328  -8.0422  -7.9777  -7.8860  -1.9431  -1.6379  -1.3778  -0.5493
     2.1578   2.2139   2.2330   2.3553   2.6171   2.7795   2.9515   3.0629
     3.3546   3.4296   3.5521   3.6455   3.6942   3.8598   3.9193   3.9446
     4.0044   4.1017   4.1230   4.1983   4.2222   4.5515   4.6136   4.6261
     9.0028   9.0539   9.2188   9.5082   9.5290   9.8116   9.8336   9.8378
     9.9397  10.3141  10.5400  10.9208  12.8085  13.7826  14.0149  14.4540
    14.5438  14.6046  14.7715  15.3443  15.3900  15.4211  15.6666  15.7587
    15.9390  16.1224  16.2831  16.4479  16.6874  16.7088  17.0594  17.0761
    17.1521  17.8994  17.9812  18.0399  18.4993  19.0166  19.0461  19.2196
    19.2681  19.3151  19.6141  19.8322  19.9200  20.3086  20.3646  20.6621
    20.9276  20.9844  21.1558  21.2889  21.4606  21.5329  21.7290  22.1373

          k = 0.1000 0.0000 0.1240 ( 54104 PWs)   bands (ev):

   -10.5205 -10.5158 -10.4764 -10.4726 -10.4703 -10.4587 -10.4362 -10.4354
   -10.4337 -10.4317 -10.4303 -10.4303 -10.4270 -10.4253 -10.4238 -10.4207
   -10.4181 -10.4159 -10.4126 -10.4116  -8.9324  -8.6757  -8.2884  -8.2230
    -8.1604  -8.0790  -7.9449  -7.8926  -1.9191  -1.6982  -1.2449  -0.6637
     2.1276   2.1288   2.2722   2.4178   2.6501   2.7639   2.9041   3.0532
     3.3072   3.3493   3.4958   3.6872   3.8121   3.8607   3.9453   3.9645
     4.0826   4.0955   4.1776   4.1896   4.2355   4.5232   4.5669   4.6819
     8.9610   8.9885   9.3535   9.4307   9.5164   9.5927   9.8918   9.9120
    10.0612  10.3636  10.4719  10.8336  12.9766  13.6749  14.1003  14.1264
    14.6591  14.7025  14.8942  14.9329  14.9939  15.5855  15.5978  15.9461
    16.1734  16.2718  16.3261  16.4637  16.7821  16.8395  17.1226  17.1354
    17.3626  17.6733  18.1053  18.1370  18.4039  18.4506  18.8015  19.2384
    19.3211  19.4116  19.6907  19.9857  20.0360  20.1056  20.2407  20.5562
    20.7140  20.8666  21.1010  21.2973  21.6628  21.7928  22.0683  22.4004

          k = 0.1000 0.0000-0.2480 ( 54092 PWs)   bands (ev):

   -10.5180 -10.5179 -10.4747 -10.4747 -10.4648 -10.4648 -10.4352 -10.4352
   -10.4323 -10.4323 -10.4311 -10.4311 -10.4261 -10.4260 -10.4198 -10.4198
   -10.4193 -10.4193 -10.4122 -10.4122  -8.8232  -8.8232  -8.2283  -8.2283
    -8.1351  -8.1351  -7.9116  -7.9116  -1.8252  -1.8252  -0.9468  -0.9468
     2.0830   2.0830   2.3854   2.3854   2.7001   2.7001   2.9897   2.9897
     3.2143   3.2143   3.6606   3.6606   3.8321   3.8321   3.9978   3.9978
     4.0448   4.0448   4.2144   4.2144   4.4859   4.4859   4.5795   4.5795
     8.9020   8.9020   9.4010   9.4010   9.6539   9.6539   9.8083   9.8084
    10.2400  10.2400  10.6079  10.6079  13.3880  13.3880  14.1332  14.1332
    14.4897  14.4897  14.7273  14.7273  15.6019  15.6019  15.6902  15.6902
    16.1003  16.1003  16.4827  16.4827  17.1414  17.1414  17.2965  17.2966
    17.4265  17.4265  17.9657  17.9657  18.4938  18.4938  19.0013  19.0013
    19.0951  19.0951  19.6840  19.6841  20.0487  20.0487  20.5752  20.5752
    20.7747  20.7747  21.2429  21.2430  21.8111  21.8112  22.1162  22.1162

          k = 0.1000 0.0988 0.0000 ( 54081 PWs)   bands (ev):

   -10.5211 -10.5146 -10.4846 -10.4804 -10.4617 -10.4491 -10.4385 -10.4356
   -10.4335 -10.4321 -10.4319 -10.4290 -10.4270 -10.4259 -10.4236 -10.4210
   -10.4181 -10.4144 -10.4127 -10.4114  -8.9428  -8.5662  -8.4062  -8.3146
    -8.0695  -8.0501  -7.9749  -7.8782  -1.9061  -1.5689  -1.4172  -0.6271
     2.1735   2.2242   2.2784   2.4188   2.5932   2.6878   2.9738   2.9738
     3.3204   3.3500   3.5440   3.6924   3.7383   3.8027   3.9126   3.9393
     4.0577   4.0897   4.1803   4.2144   4.3346   4.5627   4.6052   4.6362
     8.9704   9.1413   9.1712   9.3287   9.3636   9.7957   9.8491   9.8959
    10.0018  10.3525  10.3788  10.8498  12.9538  13.8855  14.1748  14.5053
    14.6851  14.7707  14.7917  15.1142  15.4173  15.5153  15.6540  15.7079
    15.8664  16.1890  16.4965  16.4968  16.5124  16.7370  17.0002  17.1289
    17.2709  17.5175  17.9692  18.4842  18.5307  18.7667  18.9192  19.0017
    19.2845  19.4404  19.8525  20.0659  20.2339  20.2849  20.3043  20.3327
    20.6849  20.7669  21.0469  21.1372  21.4819  21.6462  21.9228  22.0168

          k = 0.1000 0.0988 0.1240 ( 54082 PWs)   bands (ev):

   -10.5200 -10.5154 -10.4839 -10.4809 -10.4603 -10.4515 -10.4371 -10.4355
   -10.4333 -10.4322 -10.4318 -10.4297 -10.4269 -10.4250 -10.4232 -10.4206
   -10.4184 -10.4159 -10.4126 -10.4117  -8.9043  -8.6547  -8.3839  -8.2891
    -8.0958  -8.0344  -7.9533  -7.8873  -1.8753  -1.6325  -1.2927  -0.7381
     2.1327   2.1592   2.2982   2.4462   2.5968   2.7620   2.8886   3.0122
     3.2915   3.3284   3.5529   3.6901   3.7133   3.8446   3.9218   3.9852
     4.0360   4.1399   4.1804   4.2323   4.3765   4.5401   4.5672   4.6834
     8.9272   8.9941   9.1799   9.4035   9.5377   9.6357   9.7879   9.9462
    10.0799  10.2844  10.4764  10.7478  13.0755  13.7609  14.0935  14.4412
    14.6601  14.8326  14.8774  14.9400  15.1707  15.4891  15.7337  15.8608
    16.0156  16.2613  16.3886  16.5119  16.6431  16.8015  17.0780  17.2939
    17.3112  17.7802  17.9465  18.1933  18.2399  18.5936  18.7510  19.3026
    19.4163  19.5346  19.7424  19.9793  20.0050  20.2510  20.2757  20.3142
    20.5323  20.9305  21.0794  21.4460  21.6351  21.7123  22.0198  22.1198

          k = 0.1000 0.0988-0.2480 ( 54050 PWs)   bands (ev):

   -10.5175 -10.5175 -10.4824 -10.4824 -10.4563 -10.4563 -10.4356 -10.4356
   -10.4327 -10.4327 -10.4313 -10.4313 -10.4257 -10.4257 -10.4204 -10.4204
   -10.4188 -10.4188 -10.4123 -10.4123  -8.7977  -8.7977  -8.3266  -8.3266
    -8.0633  -8.0633  -7.9138  -7.9138  -1.7690  -1.7689  -1.0101  -1.0101
     2.0974   2.0974   2.3949   2.3949   2.6812   2.6812   2.9764   2.9764
     3.2575   3.2575   3.6205   3.6205   3.7864   3.7864   3.9732   3.9732
     4.0915   4.0915   4.2425   4.2425   4.4928   4.4928   4.6140   4.6140
     8.8518   8.8518   9.4235   9.4235   9.5828   9.5828   9.7663   9.7663
    10.3092  10.3092  10.5088  10.5088  13.4354  13.4354  14.2139  14.2139
    14.6469  14.6469  14.8269  14.8269  15.4959  15.4959  15.7709  15.7709
    16.0608  16.0608  16.4960  16.4960  17.0422  17.0422  17.2589  17.2589
    17.4599  17.4599  18.0004  18.0004  18.3946  18.3946  18.9518  18.9518
    19.1859  19.1859  19.8924  19.8924  20.0564  20.0564  20.5633  20.5633
    21.0124  21.0124  21.1329  21.1329  21.6335  21.6335  21.9240  21.9241

          k = 0.1000 0.1976 0.0000 ( 54067 PWs)   bands (ev):

   -10.5192 -10.5142 -10.4913 -10.4902 -10.4497 -10.4416 -10.4393 -10.4366
   -10.4335 -10.4328 -10.4323 -10.4304 -10.4278 -10.4265 -10.4208 -10.4196
   -10.4193 -10.4149 -10.4127 -10.4117  -8.8590  -8.5722  -8.5143  -8.3695
    -8.0548  -8.0342  -7.9380  -7.8730  -1.8047  -1.5237  -1.3776  -0.8353
     2.2320   2.2458   2.3806   2.5207   2.5492   2.5848   2.8739   2.9482
     3.1719   3.2443   3.5053   3.5183   3.8136   3.9079   3.9684   3.9948
     4.1101   4.1148   4.2571   4.2902   4.4468   4.5570   4.6030   4.6545
     8.9152   9.0470   9.0648   9.1110   9.3617   9.7877   9.8153   9.9922
    10.0261  10.1499  10.4301  10.6474  13.2234  13.8202  14.4396  14.8059
    14.8714  14.9199  14.9632  15.2768  15.3444  15.3875  15.6702  15.7164
    16.1394  16.3083  16.3680  16.5098  16.6104  16.6452  17.0458  17.2869
    17.3824  17.5451  17.7295  17.8401  18.5411  18.7736  18.8798  18.9856
    19.4265  19.5308  19.6658  19.7169  20.0815  20.1950  20.4142  20.4931
    20.6188  21.0483  21.0804  21.2223  21.5833  21.6802  21.7570  22.1505

          k = 0.1000 0.1976 0.1240 ( 54066 PWs)   bands (ev):

   -10.5183 -10.5147 -10.4911 -10.4903 -10.4484 -10.4427 -10.4380 -10.4362
   -10.4335 -10.4331 -10.4326 -10.4309 -10.4271 -10.4253 -10.4219 -10.4207
   -10.4184 -10.4161 -10.4126 -10.4119  -8.8229  -8.5952  -8.5412  -8.3931
    -8.0446  -7.9824  -7.9510  -7.8850  -1.7552  -1.4513  -1.4200  -0.9364
     2.1677   2.2186   2.3500   2.4016   2.5747   2.7961   2.8194   3.0541
     3.2070   3.2304   3.4981   3.5378   3.8017   3.8947   3.9360   4.0304
     4.0416   4.1337   4.2314   4.2890   4.4977   4.5519   4.6024   4.6882
     8.8662   8.8884   9.0565   9.2478   9.5150   9.7637   9.7978   9.9352
    10.0573  10.1916  10.3964  10.5591  13.3426  13.8944  14.2669  14.7022
    14.7472  14.8561  14.9585  15.0182  15.4692  15.4916  15.6965  15.9258
    15.9914  16.2622  16.3755  16.5618  16.7161  16.8266  16.9036  17.2798
    17.4061  17.5861  17.8739  17.9089  18.4897  18.6618  18.9946  19.0691
    19.3683  19.5735  19.6403  19.8263  19.9842  20.1162  20.2610  20.5987
    20.7724  20.9701  21.1043  21.2703  21.3663  21.6712  21.8305  22.1936

          k = 0.1000 0.1976-0.2480 ( 54058 PWs)   bands (ev):

   -10.5163 -10.5163 -10.4907 -10.4907 -10.4455 -10.4455 -10.4363 -10.4363
   -10.4337 -10.4337 -10.4321 -10.4321 -10.4253 -10.4253 -10.4218 -10.4218
   -10.4180 -10.4180 -10.4123 -10.4123  -8.7239  -8.7238  -8.4705  -8.4704
    -7.9916  -7.9916  -7.9220  -7.9220  -1.6142  -1.6141  -1.1782  -1.1781
     2.1402   2.1402   2.3552   2.3552   2.7140   2.7140   2.9560   2.9560
     3.3113   3.3113   3.4802   3.4802   3.8030   3.8031   3.9962   3.9962
     4.1167   4.1167   4.2331   4.2331   4.5404   4.5404   4.6620   4.6620
     8.7926   8.7926   9.2188   9.2188   9.6157   9.6157   9.9112   9.9112
    10.2393  10.2393  10.3199  10.3199  13.6915  13.6915  14.4075  14.4075
    14.6393  14.6393  14.9270  14.9270  15.5183  15.5183  15.8746  15.8746
    16.1621  16.1621  16.4570  16.4570  16.9473  16.9473  17.1093  17.1093
    17.4272  17.4273  18.0083  18.0083  18.4418  18.4418  19.2125  19.2125
    19.3500  19.3500  19.6836  19.6836  19.8590  19.8590  20.5823  20.5823
    20.9925  20.9925  21.3483  21.3484  21.5820  21.5820  21.8751  21.8751

          k = 0.1000-0.2964 0.0000 ( 54094 PWs)   bands (ev):

   -10.5160 -10.5160 -10.4940 -10.4939 -10.4404 -10.4404 -10.4393 -10.4393
   -10.4328 -10.4328 -10.4326 -10.4326 -10.4274 -10.4274 -10.4203 -10.4203
   -10.4164 -10.4164 -10.4123 -10.4123  -8.7297  -8.7296  -8.4446  -8.4446
    -8.0449  -8.0449  -7.8915  -7.8915  -1.6653  -1.6653  -1.1108  -1.1108
     2.2988   2.2988   2.3695   2.3695   2.7232   2.7232   2.7778   2.7778
     3.1686   3.1686   3.4414   3.4414   3.8607   3.8607   4.0801   4.0801
     4.1357   4.1357   4.2859   4.2859   4.5150   4.5150   4.6386   4.6386
     8.9040   8.9040   9.0094   9.0094   9.6390   9.6390   9.8001   9.8001
    10.2051  10.2051  10.4418  10.4418  13.5157  13.5158  14.7016  14.7016
    14.9522  14.9523  15.2425  15.2425  15.4552  15.4552  15.8321  15.8321
    16.1120  16.1120  16.3636  16.3636  16.8546  16.8546  17.2809  17.2809
    17.3921  17.3921  17.7022  17.7022  18.2950  18.2950  18.8828  18.8828
    19.2299  19.2299  19.8899  19.8899  20.2360  20.2360  20.5646  20.5646
    20.7711  20.7711  21.4305  21.4306  21.5981  21.5981  21.8786  21.8786

          k = 0.1000-0.2964 0.1240 ( 54014 PWs)   bands (ev):

   -10.5158 -10.5158 -10.4940 -10.4940 -10.4394 -10.4394 -10.4386 -10.4386
   -10.4341 -10.4341 -10.4326 -10.4325 -10.4265 -10.4265 -10.4212 -10.4212
   -10.4171 -10.4171 -10.4123 -10.4123  -8.6974  -8.6974  -8.5013  -8.5013
    -8.0080  -8.0080  -7.9042  -7.9042  -1.5895  -1.5895  -1.1978  -1.1978
     2.2461   2.2461   2.3184   2.3185   2.6872   2.6872   2.9828   2.9828
     3.1587   3.1587   3.4518   3.4518   3.8576   3.8576   4.0555   4.0556
     4.1098   4.1098   4.2442   4.2442   4.5447   4.5447   4.6644   4.6644
     8.8298   8.8299   9.0594   9.0594   9.7293   9.7293   9.8383   9.8383
    10.1102  10.1102  10.3953  10.3953  13.6751  13.6751  14.6171  14.6172
    14.7742  14.7742  15.1404  15.1404  15.4024  15.4024  15.8592  15.8592
    16.1159  16.1159  16.4898  16.4898  16.9419  16.9419  17.1956  17.1956
    17.4449  17.4450  17.6926  17.6926  18.5038  18.5038  19.0584  19.0584
    19.3376  19.3376  19.6345  19.6345  20.2075  20.2075  20.3736  20.3736
    20.9910  20.9911  21.1359  21.1359  21.7874  21.7875  21.9345  21.9345

          k = 0.1000-0.2964-0.2480 ( 54048 PWs)   bands (ev):

   -10.5156 -10.5156 -10.4941 -10.4941 -10.4378 -10.4377 -10.4373 -10.4372
   -10.4365 -10.4365 -10.4327 -10.4327 -10.4245 -10.4245 -10.4232 -10.4232
   -10.4177 -10.4177 -10.4123 -10.4123  -8.6185  -8.6185  -8.6011  -8.6010
    -7.9570  -7.9570  -7.9345  -7.9345  -1.3998  -1.3998  -1.3988  -1.3988
     2.1993   2.1994   2.2711   2.2711   2.8381   2.8381   2.8701   2.8701
     3.3599   3.3600   3.3779   3.3779   3.8123   3.8123   4.0801   4.0802
     4.1378   4.1378   4.1474   4.1474   4.5770   4.5770   4.6762   4.6762
     8.8002   8.8002   9.0494   9.0494   9.8175   9.8175   9.9465   9.9465
    10.0423  10.0423  10.2699  10.2699  13.9492  13.9493  14.3501  14.3501
    14.7210  14.7210  14.9171  14.9171  15.4024  15.4024  15.9078  15.9078
    16.2664  16.2664  16.4476  16.4476  17.1195  17.1195  17.1415  17.1415
    17.3552  17.3552  17.8423  17.8423  18.7014  18.7014  18.9094  18.9094
    19.5491  19.5491  19.5990  19.5990  19.7986  19.7986  20.4892  20.4892
    20.9589  20.9589  21.4271  21.4271  21.6992  21.6994  21.8438  21.8439

          k = 0.2000 0.0000 0.0000 ( 54031 PWs)   bands (ev):

   -10.5130 -10.5038 -10.4915 -10.4845 -10.4837 -10.4743 -10.4439 -10.4372
   -10.4330 -10.4304 -10.4284 -10.4278 -10.4262 -10.4238 -10.4233 -10.4213
   -10.4192 -10.4151 -10.4140 -10.4134  -8.8833  -8.5254  -8.2521  -8.2423
    -8.1264  -8.0250  -7.9838  -7.9494  -1.9728  -1.6821  -1.4338  -0.7704
     2.0677   2.1422   2.1585   2.2733   2.3860   2.4382   2.7765   3.0080
     3.3680   3.3718   3.6115   3.6141   3.7341   3.7786   3.9826   4.0403
     4.0726   4.1010   4.2611   4.3276   4.4385   4.4744   4.6826   4.6926
     8.9556   9.2546   9.3195   9.4989   9.6910   9.7498  10.0483  10.0960
    10.2129  10.2993  10.5939  10.6528  13.1198  14.0359  14.0466  14.4202
    14.4882  14.5273  14.9207  15.1604  15.1652  15.2243  15.5178  15.7823
    16.0562  16.2279  16.4361  16.5359  16.7605  17.0884  17.3374  17.4785
    17.6637  17.7188  17.9124  18.0939  18.6036  18.9928  19.0399  19.2959
    19.3333  19.5448  19.6613  20.1161  20.3247  20.5476  20.8275  20.9386
    20.9576  21.0697  21.1033  21.3287  21.6984  21.7054  21.9363  22.0900

          k = 0.2000 0.0000 0.1240 ( 54070 PWs)   bands (ev):

   -10.5114 -10.5050 -10.4909 -10.4852 -10.4834 -10.4765 -10.4427 -10.4385
   -10.4319 -10.4299 -10.4288 -10.4280 -10.4258 -10.4242 -10.4214 -10.4209
   -10.4196 -10.4152 -10.4148 -10.4134  -8.8462  -8.6079  -8.2365  -8.1821
    -8.1425  -8.0589  -7.9639  -7.9502  -1.9426  -1.7344  -1.3293  -0.8621
     2.0966   2.1186   2.1754   2.3221   2.3763   2.4114   2.7439   2.9444
     3.1493   3.3300   3.5648   3.7873   3.8393   3.9185   3.9333   3.9977
     4.0876   4.1661   4.2266   4.3487   4.4585   4.5408   4.6566   4.6811
     8.8997   9.0324   9.4958   9.5976   9.7063   9.8069  10.0182  10.1078
    10.1409  10.3837  10.4966  10.5741  13.2771  13.8366  14.1020  14.1866
    14.5897  14.6028  14.6903  14.8435  15.3148  15.3778  15.7035  15.8116
    16.2321  16.3366  16.4367  16.5650  16.7788  17.2029  17.3840  17.4292
    17.5432  17.5997  17.8319  18.0231  18.6963  18.8200  18.9961  19.3615
    19.5274  19.6334  19.8682  19.9694  20.1915  20.4291  20.4651  20.9440
    20.9525  21.0500  21.1886  21.4483  21.5613  21.7225  21.9645  22.3092

          k = 0.2000 0.0000-0.2480 ( 54106 PWs)   bands (ev):

   -10.5080 -10.5080 -10.4885 -10.4885 -10.4805 -10.4805 -10.4406 -10.4406
   -10.4302 -10.4302 -10.4288 -10.4288 -10.4248 -10.4248 -10.4203 -10.4203
   -10.4180 -10.4180 -10.4140 -10.4140  -8.7440  -8.7440  -8.1894  -8.1894
    -8.1086  -8.1086  -7.9524  -7.9524  -1.8489  -1.8489  -1.0902  -1.0902
     2.0909   2.0909   2.2901   2.2901   2.4314   2.4314   2.7076   2.7076
     3.1797   3.1797   3.7006   3.7006   3.9107   3.9107   4.0399   4.0399
     4.1586   4.1587   4.2927   4.2927   4.5139   4.5139   4.6577   4.6577
     8.8914   8.8914   9.5583   9.5583   9.9083   9.9083  10.0481  10.0481
    10.1684  10.1684  10.4969  10.4969  13.6217  13.6217  14.1694  14.1694
    14.2799  14.2799  14.7845  14.7845  15.4375  15.4375  16.0122  16.0122
    16.1700  16.1700  16.6625  16.6626  16.8994  16.8994  17.3388  17.3388
    17.5691  17.5691  17.9265  17.9265  18.8483  18.8483  19.1865  19.1865
    19.5430  19.5430  19.6468  19.6468  20.3443  20.3443  20.7961  20.7961
    20.9896  20.9896  21.3454  21.3454  21.7067  21.7067  22.2064  22.2064

          k = 0.2000 0.0988 0.0000 ( 54048 PWs)   bands (ev):

   -10.5124 -10.5038 -10.4956 -10.4909 -10.4767 -10.4678 -10.4442 -10.4368
   -10.4330 -10.4320 -10.4294 -10.4286 -10.4260 -10.4234 -10.4225 -10.4212
   -10.4196 -10.4155 -10.4142 -10.4136  -8.8554  -8.5084  -8.3489  -8.2609
    -8.0681  -8.0418  -7.9791  -7.9305  -1.9407  -1.6228  -1.4761  -0.8348
     2.0725   2.1899   2.1994   2.2486   2.3808   2.4841   2.7406   3.0218
     3.3512   3.3908   3.4677   3.5164   3.8880   3.9098   3.9583   4.0116
     4.1141   4.1349   4.2145   4.3270   4.4414   4.4672   4.6204   4.6809
     8.9934   9.0381   9.3238   9.4763   9.5403   9.9680   9.9751  10.1151
    10.2060  10.2504  10.6089  10.6709  13.2566  14.1190  14.1515  14.4288
    14.4827  14.6756  14.8866  15.1360  15.1700  15.2215  15.4817  15.8592
    16.1257  16.2025  16.3600  16.6356  16.8768  17.0576  17.1622  17.4086
    17.5958  17.8844  18.0663  18.3083  18.6022  18.8150  19.0661  19.1893
    19.5500  19.5771  19.9368  19.9579  20.2086  20.2606  20.6403  20.7600
    20.7724  20.9810  21.0942  21.1901  21.6387  21.7942  21.9226  22.1947

          k = 0.2000 0.0988 0.1240 ( 54054 PWs)   bands (ev):

   -10.5110 -10.5049 -10.4952 -10.4918 -10.4760 -10.4698 -10.4430 -10.4381
   -10.4324 -10.4316 -10.4293 -10.4288 -10.4256 -10.4238 -10.4215 -10.4209
   -10.4194 -10.4154 -10.4149 -10.4135  -8.8192  -8.5877  -8.3289  -8.2434
    -8.0805  -8.0252  -7.9736  -7.9352  -1.9051  -1.6781  -1.3764  -0.9246
     2.0380   2.1449   2.2060   2.2824   2.3963   2.5530   2.7199   2.9606
     3.1672   3.3345   3.5917   3.6552   3.8090   3.9564   3.9824   4.0298
     4.0663   4.1639   4.2047   4.3323   4.4606   4.5508   4.5975   4.6881
     8.8670   9.0940   9.3208   9.5791   9.6996   9.8072   9.9734  10.0716
    10.2197  10.3476  10.5330  10.5527  13.3507  13.9001  14.1556  14.3963
    14.5708  14.6073  14.7439  14.8801  15.2935  15.3765  15.6202  15.9086
    16.2515  16.3218  16.4607  16.6061  16.8381  17.1648  17.2322  17.3799
    17.4954  17.8933  18.0175  18.1111  18.4634  18.9193  19.0457  19.2261
    19.5768  19.6291  19.9610  20.0068  20.0616  20.2591  20.3908  20.5518
    20.8624  21.0145  21.2739  21.5022  21.6177  21.7746  22.0671  22.1295

          k = 0.2000 0.0988-0.2480 ( 54110 PWs)   bands (ev):

   -10.5079 -10.5078 -10.4938 -10.4938 -10.4734 -10.4734 -10.4406 -10.4406
   -10.4316 -10.4316 -10.4291 -10.4291 -10.4246 -10.4246 -10.4207 -10.4207
   -10.4176 -10.4176 -10.4141 -10.4141  -8.7195  -8.7195  -8.2790  -8.2790
    -8.0471  -8.0471  -7.9516  -7.9516  -1.8008  -1.8008  -1.1463  -1.1463
     2.0417   2.0417   2.2693   2.2693   2.5432   2.5432   2.7721   2.7721
     3.1540   3.1540   3.7259   3.7259   3.8603   3.8603   4.0113   4.0113
     4.1583   4.1583   4.3025   4.3025   4.4539   4.4539   4.6823   4.6823
     8.9166   8.9166   9.5406   9.5406   9.7675   9.7675  10.0343  10.0343
    10.2871  10.2871  10.4341  10.4341  13.6340  13.6340  14.2381  14.2381
    14.4365  14.4365  14.7963  14.7964  15.4143  15.4143  15.9228  15.9228
    16.2219  16.2219  16.7308  16.7308  17.1226  17.1226  17.2584  17.2584
    17.4586  17.4586  18.1026  18.1026  18.6226  18.6226  19.0538  19.0538
    19.6140  19.6140  19.8299  19.8300  20.2191  20.2191  20.7752  20.7752
    21.0526  21.0526  21.3176  21.3176  21.6854  21.6854  21.9689  21.9689

          k = 0.2000 0.1976 0.0000 ( 54043 PWs)   bands (ev):

   -10.5106 -10.5042 -10.4993 -10.4983 -10.4663 -10.4608 -10.4440 -10.4373
   -10.4333 -10.4332 -10.4317 -10.4309 -10.4256 -10.4240 -10.4214 -10.4206
   -10.4197 -10.4158 -10.4150 -10.4141  -8.7749  -8.5019  -8.4603  -8.3158
    -8.0533  -8.0392  -7.9474  -7.9110  -1.8511  -1.5852  -1.4601  -1.0069
     2.0980   2.1887   2.2249   2.3045   2.4865   2.5453   2.6706   2.9636
     3.1967   3.3013   3.5771   3.6417   3.7184   4.0242   4.0585   4.0781
     4.1109   4.1836   4.1927   4.2918   4.4401   4.4561   4.4979   4.6395
     8.7992   9.0110   9.2009   9.4623   9.5371   9.8861   9.8959  10.0354
    10.3278  10.3577  10.5790  10.6978  13.5233  14.0127  14.2878  14.5974
    14.7265  14.8282  14.8613  14.9712  15.1680  15.2691  15.5875  15.9728
    16.0831  16.4762  16.5429  16.7625  16.8083  16.9034  17.1401  17.3966
    17.6370  18.0623  18.0823  18.1595  18.5269  18.9448  19.1079  19.2860
    19.4407  19.6202  19.6854  19.8103  20.0772  20.2295  20.2524  20.3522
    20.6568  20.8515  21.2332  21.4822  21.5050  21.5279  21.9804  21.9972

          k = 0.2000 0.1976 0.1240 ( 54060 PWs)   bands (ev):

   -10.5096 -10.5051 -10.4994 -10.4986 -10.4658 -10.4619 -10.4431 -10.4382
   -10.4336 -10.4330 -10.4317 -10.4306 -10.4253 -10.4234 -10.4222 -10.4213
   -10.4184 -10.4156 -10.4153 -10.4139  -8.7411  -8.5297  -8.4768  -8.3402
    -8.0412  -7.9973  -7.9582  -7.9198  -1.8012  -1.5238  -1.4982  -1.0906
     2.0183   2.0957   2.2353   2.2682   2.5252   2.6498   2.7723   2.9756
     3.2220   3.3036   3.6283   3.6384   3.7174   3.8809   3.9816   4.0307
     4.0929   4.1985   4.2059   4.2794   4.4226   4.4924   4.6105   4.6754
     8.8169   9.1085   9.2668   9.4010   9.6716   9.8051   9.9072  10.0386
    10.2287  10.3620  10.4829  10.6032  13.5650  14.0337  14.2768  14.4833
    14.5863  14.6983  14.8331  14.8747  15.3649  15.4802  15.5525  15.9741
    16.2586  16.4969  16.5951  16.6841  16.8487  17.0198  17.1696  17.3717
    17.5256  17.9086  18.2620  18.3825  18.6454  18.7731  19.0681  19.0821
    19.2816  19.5818  19.7146  19.9195  19.9966  20.1195  20.2860  20.4820
    20.8660  21.0692  21.1692  21.2260  21.5190  21.6316  22.0084  22.1918

          k = 0.2000 0.1976-0.2480 ( 54034 PWs)   bands (ev):

   -10.5073 -10.5073 -10.4992 -10.4992 -10.4642 -10.4642 -10.4407 -10.4407
   -10.4333 -10.4333 -10.4310 -10.4309 -10.4244 -10.4243 -10.4219 -10.4218
   -10.4167 -10.4167 -10.4144 -10.4143  -8.6490  -8.6490  -8.4117  -8.4116
    -7.9938  -7.9938  -7.9482  -7.9482  -1.6687  -1.6687  -1.2935  -1.2935
     1.9879   1.9879   2.2288   2.2288   2.7382   2.7382   2.8558   2.8558
     3.2067   3.2067   3.6959   3.6959   3.7917   3.7917   3.9425   3.9425
     4.1238   4.1238   4.2633   4.2633   4.4426   4.4426   4.6977   4.6977
     8.9913   8.9913   9.4181   9.4181   9.6681   9.6681  10.0720  10.0720
    10.2437  10.2437  10.4034  10.4034  13.8133  13.8133  14.3753  14.3754
    14.4915  14.4915  14.7749  14.7749  15.5902  15.5902  15.7775  15.7775
    16.4867  16.4867  16.7262  16.7262  16.9559  16.9559  17.3018  17.3018
    17.5895  17.5895  18.3608  18.3608  18.5914  18.5914  19.0224  19.0224
    19.4651  19.4651  19.6762  19.6762  20.1167  20.1167  20.6272  20.6272
    21.0218  21.0218  21.3111  21.3111  21.6729  21.6729  21.8873  21.8874

          k = 0.2000-0.2964 0.0000 ( 54060 PWs)   bands (ev):

   -10.5073 -10.5072 -10.5007 -10.5006 -10.4595 -10.4595 -10.4414 -10.4413
   -10.4337 -10.4336 -10.4321 -10.4321 -10.4249 -10.4249 -10.4214 -10.4214
   -10.4171 -10.4171 -10.4149 -10.4149  -8.6516  -8.6516  -8.3904  -8.3904
    -8.0470  -8.0470  -7.9155  -7.9155  -1.7228  -1.7228  -1.2357  -1.2357
     2.1423   2.1423   2.2766   2.2766   2.5607   2.5607   2.8061   2.8061
     3.1791   3.1791   3.6146   3.6146   3.9486   3.9486   4.0928   4.0928
     4.1271   4.1271   4.2241   4.2242   4.4331   4.4331   4.5543   4.5543
     8.8069   8.8069   9.3307   9.3307   9.7221   9.7221   9.8862   9.8862
    10.4544  10.4544  10.6082  10.6082  13.7642  13.7642  14.5037  14.5037
    14.7976  14.7976  15.0067  15.0067  15.2542  15.2542  15.7337  15.7337
    16.3941  16.3941  16.6666  16.6666  16.9341  16.9341  17.4918  17.4918
    17.6610  17.6610  18.1390  18.1390  18.5207  18.5207  19.0375  19.0375
    19.4698  19.4699  19.7548  19.7548  20.2037  20.2037  20.4946  20.4946
    20.7194  20.7194  21.1546  21.1547  21.6138  21.6138  21.7729  21.7732

          k = 0.2000-0.2964 0.1240 ( 54072 PWs)   bands (ev):

   -10.5071 -10.5070 -10.5010 -10.5010 -10.4597 -10.4597 -10.4411 -10.4411
   -10.4336 -10.4336 -10.4323 -10.4323 -10.4246 -10.4246 -10.4220 -10.4220
   -10.4169 -10.4169 -10.4146 -10.4145  -8.6217  -8.6217  -8.4425  -8.4425
    -8.0158  -8.0158  -7.9250  -7.9250  -1.6543  -1.6543  -1.3096  -1.3096
     2.0499   2.0499   2.2392   2.2393   2.6214   2.6214   2.9514   2.9514
     3.2295   3.2295   3.6013   3.6013   3.8346   3.8346   4.0253   4.0253
     4.1060   4.1060   4.2084   4.2084   4.4519   4.4519   4.6482   4.6482
     8.8954   8.8954   9.3720   9.3720   9.6978   9.6978   9.9341   9.9341
    10.2972  10.2972  10.5598  10.5598  13.8442  13.8442  14.4697  14.4697
    14.6030  14.6030  14.9538  14.9538  15.4375  15.4375  15.6876  15.6876
    16.5075  16.5075  16.6697  16.6697  16.9986  16.9986  17.3464  17.3464
    17.7036  17.7036  18.2184  18.2184  18.8303  18.8303  19.0342  19.0343
    19.3536  19.3536  19.4955  19.4955  20.2064  20.2064  20.4479  20.4479
    20.8896  20.8896  21.1330  21.1330  21.6279  21.6279  21.9106  21.9106

          k = 0.2000-0.2964-0.2480 ( 53984 PWs)   bands (ev):

   -10.5068 -10.5068 -10.5014 -10.5014 -10.4598 -10.4598 -10.4409 -10.4408
   -10.4336 -10.4335 -10.4327 -10.4327 -10.4237 -10.4237 -10.4231 -10.4231
   -10.4162 -10.4162 -10.4146 -10.4145  -8.5419  -8.5419  -8.5412  -8.5412
    -7.9781  -7.9781  -7.9443  -7.9443  -1.4920  -1.4920  -1.4773  -1.4773
     1.9750   1.9750   2.2007   2.2007   2.8305   2.8305   2.8853   2.8853
     3.3215   3.3216   3.5762   3.5762   3.7590   3.7590   3.9801   3.9801
     4.0729   4.0729   4.1983   4.1983   4.4738   4.4738   4.7006   4.7006
     9.0700   9.0700   9.2806   9.2806   9.7006   9.7006  10.0752  10.0752
    10.1605  10.1606  10.4182  10.4182  14.0242  14.0242  14.2240  14.2240
    14.6707  14.6707  14.7283  14.7283  15.6025  15.6025  15.7283  15.7283
    16.6578  16.6578  16.6979  16.6980  17.1228  17.1228  17.1232  17.1232
    17.7086  17.7086  18.2025  18.2025  19.0503  19.0503  19.0918  19.0919
    19.2119  19.2119  19.5159  19.5159  19.9440  19.9440  20.4876  20.4876
    21.1169  21.1169  21.1938  21.1938  21.5521  21.5522  21.9972  21.9973

          k = 0.3000 0.0000 0.0000 ( 54063 PWs)   bands (ev):

   -10.5121 -10.5032 -10.5015 -10.4982 -10.4966 -10.4882 -10.4528 -10.4425
   -10.4314 -10.4283 -10.4268 -10.4266 -10.4229 -10.4211 -10.4201 -10.4197
   -10.4189 -10.4165 -10.4143 -10.4141  -8.7456  -8.4404  -8.1777  -8.1719
    -8.1365  -8.0557  -8.0104  -7.9929  -1.9661  -1.7299  -1.5257  -1.0811
     1.8384   1.9393   1.9996   2.2532   2.2924   2.4682   2.5881   2.9514
     3.3512   3.3942   3.5474   3.5733   3.6663   3.7920   3.9320   3.9923
     4.1696   4.1913   4.3487   4.3696   4.4009   4.6676   4.7526   4.7537
     9.1277   9.2097   9.5609   9.5873   9.8039   9.9665   9.9809  10.1971
    10.2757  10.4543  10.5359  11.0065  13.6570  14.1291  14.1488  14.3209
    14.4140  14.5285  14.5550  15.0755  15.1111  15.2813  15.3547  16.0143
    16.2291  16.3968  16.5793  16.9203  17.1599  17.2597  17.4170  17.4310
    17.7782  17.8272  17.9557  18.2951  19.0192  19.1994  19.3014  19.3103
    19.5232  19.7138  19.8379  20.0596  20.2261  20.2529  20.3485  20.8531
    21.1734  21.4610  21.5128  21.5285  21.8186  21.9490  22.0179  22.0205

          k = 0.3000 0.0000 0.1240 ( 54063 PWs)   bands (ev):

   -10.5109 -10.5047 -10.5023 -10.4983 -10.4962 -10.4897 -10.4513 -10.4444
   -10.4304 -10.4280 -10.4276 -10.4262 -10.4227 -10.4208 -10.4203 -10.4198
   -10.4180 -10.4154 -10.4146 -10.4138  -8.7128  -8.5072  -8.1702  -8.1395
    -8.1316  -8.0430  -8.0387  -7.9891  -1.9364  -1.7690  -1.4544  -1.1384
     1.9126   2.0076   2.0369   2.1151   2.2792   2.4112   2.4999   2.9749
     3.1463   3.3103   3.5395   3.7474   3.7715   3.8178   3.9447   4.0356
     4.1852   4.2424   4.3082   4.3679   4.5162   4.6525   4.7143   4.7543
     9.0016   9.0767   9.6404   9.7423   9.9523  10.0178  10.0509  10.1098
    10.2612  10.3889  10.5075  10.8310  13.7619  13.8785  14.2253  14.2398
    14.3808  14.5584  14.7075  14.8510  15.2026  15.4331  15.5418  15.9435
    16.1750  16.5012  16.5868  16.8671  16.9972  17.1069  17.3936  17.5655
    17.7735  17.9020  18.0064  18.4669  18.7736  19.1089  19.1102  19.3337
    19.4136  19.5627  20.0587  20.2575  20.2977  20.4177  20.6946  21.0451
    21.0797  21.1479  21.3387  21.3566  21.6733  21.7852  21.9068  21.9634

          k = 0.3000 0.0000-0.2480 ( 54084 PWs)   bands (ev):

   -10.5080 -10.5080 -10.5013 -10.5013 -10.4930 -10.4930 -10.4480 -10.4480
   -10.4288 -10.4288 -10.4271 -10.4271 -10.4215 -10.4215 -10.4201 -10.4201
   -10.4158 -10.4158 -10.4141 -10.4141  -8.6232  -8.6232  -8.1512  -8.1512
    -8.0823  -8.0823  -8.0099  -8.0099  -1.8572  -1.8572  -1.2899  -1.2899
     2.0218   2.0218   2.1406   2.1406   2.2073   2.2073   2.5896   2.5896
     3.2447   3.2447   3.7045   3.7045   3.9211   3.9211   3.9434   3.9434
     4.2371   4.2371   4.3032   4.3032   4.6291   4.6291   4.7333   4.7333
     8.9530   8.9530   9.7290   9.7290  10.0318  10.0318  10.2454  10.2454
    10.3409  10.3409  10.4269  10.4269  13.8411  13.8411  14.1726  14.1726
    14.3584  14.3584  14.8701  14.8702  15.3899  15.3899  16.0957  16.0957
    16.1195  16.1195  16.4370  16.4370  17.1329  17.1329  17.5436  17.5436
    17.7308  17.7308  18.3423  18.3423  18.8531  18.8531  19.1902  19.1902
    19.5399  19.5399  20.1841  20.1841  20.5735  20.5736  20.9082  20.9082
    21.0168  21.0168  21.4239  21.4240  21.5071  21.5071  21.8659  21.8660

          k = 0.3000 0.0988 0.0000 ( 54048 PWs)   bands (ev):

   -10.5118 -10.5060 -10.5051 -10.4944 -10.4931 -10.4858 -10.4523 -10.4422
   -10.4318 -10.4299 -10.4273 -10.4258 -10.4249 -10.4208 -10.4204 -10.4199
   -10.4184 -10.4169 -10.4146 -10.4143  -8.7202  -8.4255  -8.2739  -8.1919
    -8.0776  -8.0698  -7.9885  -7.9880  -1.9436  -1.6873  -1.5649  -1.1279
     1.8644   1.9426   2.0581   2.2597   2.3443   2.4431   2.6616   2.9810
     3.2903   3.3769   3.4886   3.5126   3.7262   3.8226   3.9651   4.0956
     4.1180   4.1351   4.3345   4.3540   4.4306   4.5815   4.6560   4.7584
     8.9183   9.1919   9.5403   9.6319   9.8739   9.9765   9.9853  10.1544
    10.2813  10.5830  10.5866  10.9483  13.7555  14.1390  14.1847  14.3926
    14.4931  14.5519  14.7279  15.0671  15.0683  15.2543  15.3159  15.9607
    16.3093  16.3219  16.5836  16.8718  17.0500  17.2505  17.4161  17.6883
    17.7622  17.9821  18.0720  18.3321  18.8378  19.1307  19.3623  19.3979
    19.6791  19.7542  19.9912  20.0515  20.0546  20.0598  20.4675  20.7655
    20.9742  21.1608  21.2326  21.4024  21.4535  21.6747  21.7100  21.9200

          k = 0.3000 0.0988 0.1240 ( 54023 PWs)   bands (ev):

   -10.5114 -10.5074 -10.5040 -10.4968 -10.4918 -10.4871 -10.4509 -10.4441
   -10.4311 -10.4300 -10.4274 -10.4257 -10.4242 -10.4210 -10.4206 -10.4199
   -10.4176 -10.4157 -10.4147 -10.4140  -8.6883  -8.4895  -8.2592  -8.1900
    -8.0735  -8.0425  -8.0093  -7.9843  -1.9102  -1.7286  -1.4955  -1.1852
     1.9319   1.9697   2.0396   2.1871   2.3033   2.5160   2.5450   3.0083
     3.0763   3.2881   3.5707   3.6671   3.7227   3.8637   4.0221   4.0856
     4.1477   4.1926   4.2645   4.3502   4.5392   4.5683   4.6268   4.7590
     8.8708   9.2163   9.5512   9.7161   9.8863   9.9991  10.0188  10.1964
    10.2730  10.4728  10.5522  10.7893  13.7893  13.9579  14.2719  14.3818
    14.4374  14.5525  14.7388  14.9152  15.1279  15.3890  15.4980  16.0057
    16.1274  16.5339  16.6367  16.9650  17.0343  17.1573  17.4308  17.5568
    17.7349  17.9275  18.1478  18.5378  18.7270  18.9326  19.2282  19.3626
    19.4354  19.6504  19.9644  20.0657  20.2353  20.3078  20.5441  20.8248
    20.9426  21.0314  21.2268  21.4092  21.4905  21.7855  21.9063  22.0080

          k = 0.3000 0.0988-0.2480 ( 54026 PWs)   bands (ev):

   -10.5099 -10.5099 -10.5008 -10.5008 -10.4897 -10.4897 -10.4477 -10.4477
   -10.4303 -10.4303 -10.4268 -10.4268 -10.4223 -10.4223 -10.4202 -10.4202
   -10.4157 -10.4157 -10.4141 -10.4141  -8.6014  -8.6014  -8.2226  -8.2226
    -8.0390  -8.0390  -8.0059  -8.0059  -1.8231  -1.8231  -1.3347  -1.3347
     1.9861   1.9861   2.1085   2.1085   2.3334   2.3334   2.7216   2.7216
     3.1134   3.1134   3.7372   3.7372   3.8845   3.8845   4.0301   4.0301
     4.1834   4.1834   4.2661   4.2661   4.5576   4.5576   4.7231   4.7231
     8.9940   8.9940   9.6917   9.6917  10.0005  10.0005  10.1650  10.1650
    10.3536  10.3536  10.5019  10.5019  13.8831  13.8831  14.2469  14.2469
    14.4266  14.4266  14.8422  14.8422  15.3501  15.3501  15.8997  15.8997
    16.3196  16.3196  16.7205  16.7205  17.2295  17.2295  17.4398  17.4399
    17.7010  17.7011  18.4178  18.4178  18.7370  18.7370  19.1323  19.1323
    19.6339  19.6339  19.8971  19.8971  20.5615  20.5615  20.8008  20.8008
    20.9896  20.9896  21.2982  21.2983  21.6474  21.6476  21.9401  21.9402

          k = 0.3000 0.1976 0.0000 ( 54050 PWs)   bands (ev):

   -10.5124 -10.5106 -10.5034 -10.4954 -10.4856 -10.4813 -10.4505 -10.4430
   -10.4317 -10.4316 -10.4295 -10.4282 -10.4240 -10.4213 -10.4213 -10.4208
   -10.4174 -10.4172 -10.4151 -10.4149  -8.6477  -8.4104  -8.3781  -8.2482
    -8.0715  -8.0541  -7.9705  -7.9636  -1.8783  -1.6628  -1.5712  -1.2513
     1.9320   1.9832   2.0987   2.2811   2.3585   2.5648   2.7980   2.9672
     3.1899   3.2515   3.5603   3.5608   3.8158   3.8234   3.9685   4.0190
     4.1453   4.1603   4.1680   4.3091   4.4393   4.4474   4.5624   4.7290
     8.7166   9.1305   9.3698   9.7600   9.7627   9.9509  10.0775  10.1977
    10.4350  10.6493  10.7025  10.8634  13.9499  14.1795  14.3205  14.3866
    14.6171  14.7521  14.8951  14.9752  15.0546  15.1683  15.4526  15.7404
    16.2278  16.6084  16.8172  16.9424  16.9645  17.0617  17.4223  17.6390
    17.9688  18.2600  18.2809  18.3299  18.7732  19.0330  19.3174  19.4351
    19.4561  19.7860  19.8645  19.8949  20.1779  20.2440  20.2934  20.3436
    20.5783  20.7187  21.0200  21.2122  21.4363  21.4605  21.6126  21.9311

          k = 0.3000 0.1976 0.1240 ( 54041 PWs)   bands (ev):

   -10.5125 -10.5112 -10.5025 -10.4971 -10.4851 -10.4823 -10.4497 -10.4446
   -10.4318 -10.4313 -10.4290 -10.4278 -10.4240 -10.4220 -10.4216 -10.4206
   -10.4167 -10.4159 -10.4148 -10.4143  -8.6184  -8.4401  -8.3843  -8.2732
    -8.0507  -8.0324  -7.9779  -7.9684  -1.8354  -1.6202  -1.5969  -1.3073
     1.9096   1.9956   2.0703   2.2654   2.3640   2.6077   2.7752   2.9517
     3.0803   3.3295   3.4835   3.6470   3.7760   3.8871   3.9242   4.0593
     4.1147   4.1719   4.1955   4.3424   4.3892   4.4457   4.6267   4.7407
     8.8022   9.2341   9.4532   9.6664   9.8461   9.8904  10.0697  10.2096
    10.4056  10.5245  10.6370  10.7307  13.9138  14.1193  14.3433  14.4357
    14.4999  14.7283  14.8377  14.8912  15.1304  15.3757  15.4791  15.9023
    16.1616  16.6707  16.8030  16.9574  17.1433  17.3237  17.3906  17.5418
    17.9011  18.0544  18.3644  18.4577  18.7562  18.9771  19.0054  19.3223
    19.4245  19.6245  19.7701  20.0276  20.1160  20.2398  20.3085  20.3941
    20.8362  20.8898  20.9717  21.1276  21.3073  21.7027  21.8863  21.9559

          k = 0.3000 0.1976-0.2480 ( 54032 PWs)   bands (ev):

   -10.5123 -10.5122 -10.5001 -10.5001 -10.4840 -10.4840 -10.4476 -10.4475
   -10.4315 -10.4315 -10.4280 -10.4280 -10.4234 -10.4234 -10.4211 -10.4211
   -10.4152 -10.4152 -10.4143 -10.4143  -8.5393  -8.5392  -8.3330  -8.3329
    -8.0176  -8.0176  -7.9836  -7.9836  -1.7287  -1.7287  -1.4495  -1.4495
     1.9107   1.9108   2.1707   2.1707   2.5266   2.5266   2.8681   2.8681
     3.0574   3.0574   3.6762   3.6762   3.8436   3.8436   4.0299   4.0300
     4.1060   4.1060   4.2673   4.2673   4.4181   4.4181   4.7106   4.7106
     9.1069   9.1069   9.5288   9.5288   9.9527   9.9527  10.1653  10.1653
    10.3577  10.3577  10.5509  10.5509  14.0289  14.0289  14.2857  14.2857
    14.6037  14.6037  14.7748  14.7748  15.4397  15.4397  15.7308  15.7308
    16.4591  16.4591  17.0692  17.0692  17.1730  17.1730  17.5818  17.5818
    17.8627  17.8627  18.3386  18.3386  18.7310  18.7311  19.0620  19.0620
    19.3431  19.3432  19.9239  19.9239  20.3157  20.3157  20.5224  20.5224
    20.9570  20.9570  21.2946  21.2946  21.5425  21.5426  21.7454  21.7454

          k = 0.3000-0.2964 0.0000 ( 54090 PWs)   bands (ev):

   -10.5126 -10.5126 -10.4991 -10.4991 -10.4807 -10.4807 -10.4467 -10.4467
   -10.4313 -10.4313 -10.4306 -10.4306 -10.4224 -10.4224 -10.4218 -10.4218
   -10.4169 -10.4169 -10.4153 -10.4153  -8.5381  -8.5381  -8.3181  -8.3181
    -8.0608  -8.0608  -7.9571  -7.9571  -1.7783  -1.7783  -1.4129  -1.4129
     2.0057   2.0057   2.1336   2.1337   2.5487   2.5487   2.9157   2.9157
     3.1836   3.1836   3.5995   3.5995   3.8268   3.8268   3.9917   3.9917
     4.0890   4.0890   4.2536   4.2536   4.3360   4.3360   4.6646   4.6647
     8.8093   8.8093   9.5757   9.5758   9.8889   9.8889  10.0986  10.0986
    10.6709  10.6709  10.7538  10.7538  14.1000  14.1000  14.4991  14.4991
    14.7060  14.7060  14.7599  14.7600  15.2354  15.2354  15.5932  15.5932
    16.5193  16.5193  16.8185  16.8185  17.1621  17.1621  17.5566  17.5566
    17.9514  17.9514  18.4616  18.4616  19.0395  19.0395  19.1920  19.1920
    19.3045  19.3045  19.8822  19.8822  20.1642  20.1642  20.3947  20.3947
    20.6863  20.6863  20.9200  20.9200  21.3350  21.3350  21.9147  21.9148

          k = 0.3000-0.2964 0.1240 ( 54058 PWs)   bands (ev):

   -10.5129 -10.5128 -10.4994 -10.4994 -10.4810 -10.4810 -10.4472 -10.4472
   -10.4311 -10.4311 -10.4302 -10.4302 -10.4229 -10.4229 -10.4219 -10.4219
   -10.4160 -10.4160 -10.4147 -10.4147  -8.5131  -8.5131  -8.3613  -8.3613
    -8.0383  -8.0383  -7.9623  -7.9623  -1.7244  -1.7244  -1.4652  -1.4652
     1.9407   1.9408   2.1860   2.1860   2.5287   2.5287   2.9148   2.9148
     3.2607   3.2607   3.5363   3.5363   3.8207   3.8207   3.9110   3.9110
     4.1381   4.1381   4.2988   4.2988   4.3216   4.3216   4.6957   4.6957
     8.9363   8.9363   9.6586   9.6586   9.7779   9.7780  10.1308  10.1308
    10.5491  10.5491  10.6646  10.6646  14.0818  14.0818  14.4167  14.4167
    14.6326  14.6326  14.9043  14.9043  15.2574  15.2574  15.6336  15.6336
    16.5424  16.5424  16.9476  16.9476  17.1860  17.1860  17.5976  17.5976
    17.9310  17.9310  18.5072  18.5072  18.8121  18.8121  19.1866  19.1866
    19.3840  19.3840  19.8275  19.8275  20.1714  20.1714  20.3880  20.3880
    20.6646  20.6646  21.0022  21.0022  21.4018  21.4018  21.6980  21.6981

          k = 0.3000-0.2964-0.2480 ( 54004 PWs)   bands (ev):

   -10.5131 -10.5131 -10.4998 -10.4998 -10.4813 -10.4813 -10.4477 -10.4477
   -10.4308 -10.4308 -10.4299 -10.4299 -10.4229 -10.4229 -10.4224 -10.4224
   -10.4147 -10.4147 -10.4146 -10.4146  -8.4553  -8.4553  -8.4342  -8.4342
    -8.0153  -8.0153  -7.9708  -7.9708  -1.6046  -1.6046  -1.5833  -1.5833
     1.8815   1.8815   2.2215   2.2215   2.6473   2.6473   2.7484   2.7484
     3.3708   3.3709   3.4743   3.4743   3.8037   3.8037   3.8932   3.8933
     4.1550   4.1550   4.2820   4.2820   4.3808   4.3808   4.6978   4.6978
     9.2817   9.2817   9.3053   9.3053   9.9540   9.9540  10.1741  10.1741
    10.3920  10.3920  10.5316  10.5316  14.1357  14.1357  14.2475  14.2475
    14.7112  14.7112  14.8063  14.8063  15.4829  15.4829  15.5782  15.5782
    16.6356  16.6356  17.0085  17.0085  17.3104  17.3104  17.5134  17.5134
    18.0790  18.0790  18.2996  18.2996  18.7543  18.7543  19.1141  19.1141
    19.3167  19.3167  19.6971  19.6971  20.2630  20.2630  20.4263  20.4263
    20.8464  20.8464  21.1261  21.1261  21.5810  21.5810  21.7204  21.7204

          k = 0.4000 0.0000 0.0000 ( 53999 PWs)   bands (ev):

   -10.5247 -10.5206 -10.5156 -10.5135 -10.4867 -10.4734 -10.4634 -10.4504
   -10.4297 -10.4273 -10.4266 -10.4260 -10.4207 -10.4203 -10.4194 -10.4193
   -10.4147 -10.4141 -10.4139 -10.4125  -8.5734  -8.3434  -8.2116  -8.1782
    -8.1029  -8.0932  -8.0124  -8.0093  -1.8781  -1.7489  -1.6319  -1.4089
     1.6946   1.7426   1.8916   2.0642   2.3537   2.6135   2.7107   2.9035
     3.1108   3.3284   3.3938   3.5410   3.7619   3.8431   3.8545   3.9765
     4.2001   4.2821   4.3452   4.3587   4.4781   4.7268   4.7663   4.7920
     9.2651   9.4258   9.5364   9.7188   9.7782   9.8096   9.9142  10.3150
    10.3964  10.7220  10.8724  11.2011  13.9277  14.0444  14.2783  14.2971
    14.5418  14.5445  14.6369  15.1431  15.2505  15.2851  15.3095  15.8491
    16.3200  16.4754  16.6996  16.8744  17.3951  17.3965  17.4434  17.5807
    17.9627  18.1017  18.2299  18.2527  19.0520  19.1571  19.2209  19.4505
    19.5631  19.6965  19.7106  19.7890  20.0378  20.1319  20.5885  20.9265
    20.9865  20.9887  21.4255  21.4478  21.6471  21.7288  22.0770  22.1942

          k = 0.4000 0.0000 0.1240 ( 53991 PWs)   bands (ev):

   -10.5244 -10.5215 -10.5163 -10.5148 -10.4848 -10.4756 -10.4616 -10.4527
   -10.4292 -10.4276 -10.4265 -10.4259 -10.4208 -10.4206 -10.4189 -10.4186
   -10.4140 -10.4135 -10.4133 -10.4122  -8.5473  -8.3902  -8.2063  -8.1832
    -8.0906  -8.0679  -8.0298  -8.0106  -1.8613  -1.7711  -1.5895  -1.4288
     1.7575   1.7973   1.9147   1.9908   2.3299   2.4430   2.5622   2.9513
     3.1427   3.1439   3.4123   3.7908   3.8123   3.8736   3.8879   4.0037
     4.1974   4.2774   4.3283   4.3553   4.5428   4.7015   4.7740   4.7886
     9.1360   9.2103   9.6423   9.6980   9.9606   9.9995  10.0905  10.2275
    10.4104  10.6392  10.7534  11.0235  13.8743  13.9854  14.1760  14.2012
    14.6521  14.8008  14.8334  15.0019  15.2755  15.4104  15.4797  15.9287
    16.1776  16.4488  16.5769  16.8007  17.0576  17.3719  17.5820  17.7543
    17.7797  18.0922  18.1538  18.3757  18.5576  18.9232  19.1680  19.3781
    19.5939  19.6906  20.0232  20.0742  20.1543  20.3867  20.6436  20.9553
    21.0787  21.2730  21.3831  21.6010  21.7867  21.8973  21.9812  22.0842

          k = 0.4000 0.0000-0.2480 ( 53972 PWs)   bands (ev):

   -10.5233 -10.5233 -10.5164 -10.5164 -10.4804 -10.4804 -10.4574 -10.4574
   -10.4282 -10.4282 -10.4261 -10.4261 -10.4207 -10.4207 -10.4183 -10.4183
   -10.4133 -10.4133 -10.4120 -10.4120  -8.4773  -8.4773  -8.1949  -8.1949
    -8.0610  -8.0610  -8.0307  -8.0307  -1.8188  -1.8188  -1.4981  -1.4981
     1.8400   1.8400   1.9764   1.9764   2.2316   2.2317   2.6239   2.6239
     3.2428   3.2428   3.5857   3.5857   3.8869   3.8869   4.0014   4.0014
     4.2290   4.2290   4.3733   4.3733   4.6569   4.6569   4.7654   4.7654
     9.0731   9.0731   9.6652   9.6652  10.0916  10.0916  10.4128  10.4128
    10.4730  10.4730  10.5975  10.5975  13.8816  13.8816  14.1084  14.1084
    14.8113  14.8113  15.0626  15.0626  15.5216  15.5216  15.8483  15.8483
    16.0635  16.0635  16.4946  16.4946  17.1514  17.1514  17.6017  17.6017
    17.8119  17.8119  18.4274  18.4274  18.6246  18.6246  19.3670  19.3670
    19.5143  19.5143  20.1987  20.1987  20.5075  20.5075  20.8069  20.8069
    21.4473  21.4473  21.5467  21.5467  21.7023  21.7023  22.0636  22.0636

          k = 0.4000 0.0988 0.0000 ( 54022 PWs)   bands (ev):

   -10.5241 -10.5192 -10.5180 -10.5116 -10.4852 -10.4732 -10.4624 -10.4503
   -10.4301 -10.4284 -10.4268 -10.4266 -10.4225 -10.4202 -10.4201 -10.4193
   -10.4147 -10.4139 -10.4137 -10.4126  -8.5530  -8.3339  -8.2233  -8.2145
    -8.0970  -8.0849  -8.0107  -8.0106  -1.8697  -1.7287  -1.6579  -1.4368
     1.7272   1.7627   1.9547   2.0980   2.4578   2.5601   2.7253   2.9580
     3.1665   3.2331   3.4360   3.5093   3.6957   3.8498   3.8800   4.0991
     4.1068   4.1894   4.2415   4.2919   4.5752   4.6372   4.7080   4.7912
     9.0121   9.4569   9.6371   9.6757   9.8094   9.8746   9.9185  10.3648
    10.4568  10.7628  10.9096  11.1300  13.9689  14.1646  14.2745  14.3841
    14.5945  14.6800  14.6968  15.1551  15.1868  15.2850  15.3423  15.7648
    16.3952  16.4320  16.7559  16.8323  17.1541  17.2685  17.5896  17.6602
    17.9179  18.0381  18.2707  18.3309  19.0625  19.0937  19.2666  19.4972
    19.5884  19.7850  19.8231  19.9503  20.0990  20.1855  20.6790  20.7594
    20.7755  21.1285  21.1714  21.2893  21.3329  21.5242  21.5943  22.0249

          k = 0.4000 0.0988 0.1240 ( 54016 PWs)   bands (ev):

   -10.5241 -10.5208 -10.5174 -10.5131 -10.4835 -10.4752 -10.4608 -10.4526
   -10.4298 -10.4288 -10.4268 -10.4261 -10.4222 -10.4210 -10.4194 -10.4186
   -10.4140 -10.4133 -10.4130 -10.4122  -8.5279  -8.3779  -8.2215  -8.2133
    -8.0807  -8.0744  -8.0238  -8.0102  -1.8505  -1.7518  -1.6168  -1.4578
     1.8036   1.8186   1.9576   2.0580   2.3066   2.5213   2.6084   2.9340
     3.0469   3.2272   3.4458   3.7022   3.7632   3.8952   3.9478   4.0449
     4.1185   4.1921   4.2421   4.3353   4.5985   4.6416   4.6973   4.7905
     9.0042   9.3172   9.6137   9.6742   9.9083  10.0053  10.0984  10.3070
    10.4709  10.6762  10.7894  10.9684  13.9563  14.0949  14.2126  14.3228
    14.6905  14.7342  14.8794  15.0797  15.1770  15.3882  15.4506  15.9364
    16.1009  16.5612  16.7655  16.8309  17.0964  17.3624  17.4822  17.6788
    17.9330  17.9708  18.1777  18.3983  18.5944  18.8342  19.2197  19.5413
    19.6560  19.7671  19.8983  20.0552  20.1197  20.4067  20.4176  20.7344
    20.8995  21.1758  21.3026  21.4872  21.6548  21.7935  21.8596  21.9752

          k = 0.4000 0.0988-0.2480 ( 53986 PWs)   bands (ev):

   -10.5231 -10.5231 -10.5157 -10.5157 -10.4796 -10.4796 -10.4570 -10.4570
   -10.4293 -10.4293 -10.4262 -10.4262 -10.4216 -10.4216 -10.4186 -10.4186
   -10.4131 -10.4131 -10.4119 -10.4119  -8.4607  -8.4607  -8.2160  -8.2160
    -8.0651  -8.0651  -8.0238  -8.0238  -1.8029  -1.8029  -1.5274  -1.5274
     1.8977   1.8977   2.0066   2.0066   2.2488   2.2488   2.6667   2.6667
     3.1828   3.1828   3.6757   3.6757   3.7721   3.7721   4.0863   4.0863
     4.1292   4.1292   4.3282   4.3282   4.6415   4.6415   4.7350   4.7350
     9.1015   9.1015   9.6137   9.6137  10.1205  10.1205  10.3116  10.3116
    10.5400  10.5400  10.6410  10.6410  13.9905  13.9905  14.2112  14.2112
    14.7413  14.7413  15.0370  15.0370  15.4206  15.4206  15.7783  15.7783
    16.2978  16.2978  16.6863  16.6863  17.1913  17.1913  17.5448  17.5448
    17.8518  17.8518  18.3557  18.3557  18.6478  18.6479  19.3587  19.3587
    19.5117  19.5117  20.0615  20.0615  20.3271  20.3271  20.7066  20.7066
    21.2086  21.2086  21.6073  21.6073  21.6716  21.6716  22.0755  22.0756

          k = 0.4000 0.1976 0.0000 ( 54038 PWs)   bands (ev):

   -10.5230 -10.5204 -10.5157 -10.5106 -10.4812 -10.4736 -10.4596 -10.4514
   -10.4301 -10.4300 -10.4281 -10.4262 -10.4251 -10.4223 -10.4213 -10.4203
   -10.4144 -10.4134 -10.4132 -10.4128  -8.4952  -8.3241  -8.2928  -8.2312
    -8.0960  -8.0740  -8.0125  -8.0091  -1.8415  -1.7211  -1.6727  -1.5073
     1.8243   1.8346   2.0286   2.1149   2.5066   2.7140   2.8574   3.0245
     3.1578   3.1983   3.4333   3.4559   3.6494   3.8749   3.8816   3.9601
     4.0209   4.0909   4.1179   4.2449   4.4451   4.6157   4.6951   4.7499
     8.8753   9.2930   9.5223   9.6261   9.9022   9.9602  10.1402  10.3538
    10.6485  10.8468  10.9645  10.9875  14.1738  14.3686  14.3746  14.4941
    14.5959  14.8508  14.8796  14.9861  15.1662  15.3772  15.3986  15.5378
    16.4798  16.6607  16.7370  16.8967  17.0254  17.1903  17.4578  17.6705
    17.9764  18.0462  18.2562  18.3691  18.8405  19.1586  19.3832  19.3986
    19.5077  19.7058  19.9685  20.1280  20.2171  20.3493  20.3944  20.4152
    20.7162  20.8707  20.9347  21.0036  21.1943  21.4705  21.4738  21.8121

          k = 0.4000 0.1976 0.1240 ( 54020 PWs)   bands (ev):

   -10.5232 -10.5213 -10.5153 -10.5119 -10.4804 -10.4752 -10.4588 -10.4533
   -10.4302 -10.4299 -10.4277 -10.4262 -10.4244 -10.4225 -10.4210 -10.4198
   -10.4135 -10.4128 -10.4125 -10.4123  -8.4731  -8.3462  -8.2967  -8.2435
    -8.0804  -8.0679  -8.0181  -8.0108  -1.8162  -1.6992  -1.6815  -1.5306
     1.8595   1.9142   2.0063   2.1596   2.3692   2.6221   2.8013   2.9349
     3.0841   3.1377   3.3365   3.6467   3.7240   3.8748   3.9051   3.9627
     4.0734   4.1596   4.2087   4.3064   4.4602   4.5690   4.6684   4.7517
     8.9444   9.3470   9.4330   9.6292   9.9238  10.0742  10.1797  10.3218
    10.6192  10.7417  10.8376  10.8648  14.1950  14.3116  14.3297  14.5123
    14.6357  14.8185  14.9692  15.0273  15.0410  15.3598  15.4422  15.7152
    16.3359  16.7469  16.8106  17.0504  17.1880  17.3435  17.4577  17.6900
    17.8228  18.1155  18.1473  18.4263  18.6547  18.8366  19.0508  19.3852
    19.5927  19.8159  19.8640  20.0331  20.1842  20.2333  20.4312  20.5681
    20.5901  20.8113  21.0732  21.3186  21.4085  21.4933  21.7784  21.9877

          k = 0.4000 0.1976-0.2480 ( 54006 PWs)   bands (ev):

   -10.5228 -10.5228 -10.5141 -10.5140 -10.4781 -10.4781 -10.4566 -10.4566
   -10.4300 -10.4300 -10.4268 -10.4268 -10.4233 -10.4233 -10.4200 -10.4200
   -10.4125 -10.4125 -10.4117 -10.4117  -8.4146  -8.4146  -8.2721  -8.2720
    -8.0638  -8.0638  -8.0188  -8.0188  -1.7566  -1.7566  -1.5997  -1.5997
     1.9227   1.9227   2.1322   2.1322   2.3727   2.3727   2.7745   2.7746
     3.0501   3.0501   3.5320   3.5320   3.7938   3.7938   4.0608   4.0608
     4.1783   4.1783   4.2538   4.2538   4.5264   4.5264   4.6899   4.6900
     9.1728   9.1728   9.4871   9.4871  10.1648  10.1648  10.2547  10.2547
    10.5910  10.5910  10.6854  10.6854  14.2366  14.2366  14.4170  14.4171
    14.6655  14.6655  14.9757  14.9757  15.3136  15.3137  15.6861  15.6861
    16.4570  16.4570  17.0951  17.0951  17.3226  17.3226  17.5152  17.5153
    18.0291  18.0291  18.2293  18.2293  18.6625  18.6625  19.0672  19.0672
    19.5273  19.5273  19.8612  19.8612  20.2202  20.2202  20.5487  20.5487
    20.9887  20.9887  21.2931  21.2931  21.5673  21.5673  21.9391  21.9391

          k = 0.4000-0.2964 0.0000 ( 54040 PWs)   bands (ev):

   -10.5219 -10.5219 -10.5121 -10.5121 -10.4766 -10.4766 -10.4552 -10.4552
   -10.4296 -10.4296 -10.4284 -10.4284 -10.4243 -10.4243 -10.4218 -10.4218
   -10.4135 -10.4135 -10.4130 -10.4130  -8.4108  -8.4108  -8.2646  -8.2646
    -8.0830  -8.0830  -8.0107  -8.0107  -1.7897  -1.7897  -1.5936  -1.5936
     1.9346   1.9346   1.9976   1.9976   2.6960   2.6960   3.0598   3.0598
     3.1545   3.1545   3.3837   3.3837   3.7223   3.7223   3.8952   3.8952
     3.9781   3.9781   4.1764   4.1764   4.4710   4.4710   4.7394   4.7394
     8.9934   8.9934   9.5791   9.5791   9.9667   9.9667  10.2687  10.2687
    10.8458  10.8458  10.9355  10.9355  14.4521  14.4521  14.5115  14.5115
    14.6456  14.6456  14.8395  14.8395  15.3803  15.3803  15.4549  15.4549
    16.6654  16.6654  16.7834  16.7834  17.2438  17.2438  17.3783  17.3784
    18.2098  18.2098  18.3949  18.3949  18.5769  18.5769  19.3689  19.3689
    19.6496  19.6496  19.9459  19.9459  20.0985  20.0985  20.5369  20.5369
    20.6793  20.6793  20.9877  20.9877  21.5203  21.5203  21.6197  21.6197

          k = 0.4000-0.2964 0.1240 ( 54050 PWs)   bands (ev):

   -10.5223 -10.5223 -10.5126 -10.5126 -10.4770 -10.4770 -10.4559 -10.4559
   -10.4295 -10.4295 -10.4281 -10.4281 -10.4237 -10.4236 -10.4218 -10.4218
   -10.4128 -10.4128 -10.4125 -10.4125  -8.3939  -8.3939  -8.2902  -8.2902
    -8.0720  -8.0720  -8.0141  -8.0141  -1.7577  -1.7577  -1.6184  -1.6184
     1.9251   1.9251   2.0790   2.0791   2.6090   2.6090   2.9274   2.9274
     3.1458   3.1458   3.3040   3.3040   3.7502   3.7502   3.9659   3.9659
     4.1327   4.1327   4.2666   4.2666   4.4114   4.4114   4.7110   4.7110
     9.0729   9.0729   9.5376   9.5376  10.0282  10.0282  10.2670  10.2670
    10.7623  10.7623  10.8106  10.8106  14.4043  14.4043  14.4911  14.4912
    14.7002  14.7002  14.9162  14.9162  15.2763  15.2763  15.5007  15.5007
    16.6552  16.6552  16.9644  16.9644  17.2791  17.2791  17.6359  17.6359
    17.9505  17.9505  18.3805  18.3805  18.6650  18.6650  19.1187  19.1187
    19.5435  19.5435  19.8785  19.8785  20.2843  20.2843  20.4526  20.4527
    20.7254  20.7254  21.0906  21.0906  21.4502  21.4502  21.8689  21.8692

          k = 0.4000-0.2964-0.2480 ( 53996 PWs)   bands (ev):

   -10.5227 -10.5227 -10.5131 -10.5131 -10.4774 -10.4774 -10.4566 -10.4566
   -10.4293 -10.4293 -10.4279 -10.4279 -10.4229 -10.4229 -10.4220 -10.4220
   -10.4122 -10.4122 -10.4118 -10.4118  -8.3607  -8.3607  -8.3310  -8.3309
    -8.0607  -8.0607  -8.0188  -8.0188  -1.6920  -1.6920  -1.6770  -1.6770
     1.9132   1.9132   2.1933   2.1933   2.5665   2.5665   2.7276   2.7276
     3.1701   3.1701   3.1799   3.1799   3.9061   3.9061   4.0317   4.0317
     4.1961   4.1961   4.2574   4.2574   4.4597   4.4598   4.6450   4.6451
     9.2572   9.2572   9.3655   9.3655  10.1995  10.1995  10.2392  10.2393
    10.6403  10.6403  10.6663  10.6663  14.3783  14.3783  14.4474  14.4474
    14.7824  14.7824  14.9180  14.9180  15.3532  15.3532  15.4523  15.4523
    16.6448  16.6448  17.0623  17.0623  17.5379  17.5379  17.5541  17.5541
    18.1111  18.1111  18.2771  18.2771  18.5130  18.5130  18.9936  18.9936
    19.5642  19.5642  19.6358  19.6358  20.3392  20.3392  20.3770  20.3770
    20.9260  20.9260  21.0628  21.0628  21.6320  21.6320  21.7678  21.7679

          k =-0.5000 0.0000 0.0000 ( 54032 PWs)   bands (ev):

   -10.5285 -10.5285 -10.5205 -10.5205 -10.4748 -10.4748 -10.4606 -10.4606
   -10.4283 -10.4283 -10.4260 -10.4260 -10.4203 -10.4203 -10.4193 -10.4193
   -10.4137 -10.4137 -10.4115 -10.4115  -8.3874  -8.3873  -8.2509  -8.2509
    -8.0442  -8.0442  -8.0403  -8.0403  -1.7157  -1.7157  -1.6885  -1.6885
     1.6583   1.6583   1.9104   1.9104   2.5978   2.5978   2.7484   2.7484
     3.2653   3.2653   3.2974   3.2974   3.8593   3.8593   3.9352   3.9352
     4.2592   4.2592   4.3150   4.3150   4.6200   4.6200   4.8012   4.8012
     9.4637   9.4637   9.5709   9.5709   9.6912   9.6912  10.1835  10.1835
    10.6709  10.6709  11.1494  11.1494  13.8752  13.8752  14.3640  14.3640
    14.6873  14.6873  15.0676  15.0676  15.2211  15.2211  15.5622  15.5622
    16.4405  16.4405  16.6482  16.6482  17.4612  17.4612  17.4678  17.4678
    18.2168  18.2169  18.3122  18.3122  18.9241  18.9241  19.1918  19.1918
    19.6650  19.6650  19.8423  19.8423  20.2764  20.2764  20.5643  20.5643
    20.7219  20.7219  21.7061  21.7061  21.7613  21.7613  22.0285  22.0285

          k =-0.5000 0.0000 0.1240 ( 53998 PWs)   bands (ev):

   -10.5288 -10.5288 -10.5215 -10.5215 -10.4729 -10.4729 -10.4631 -10.4631
   -10.4282 -10.4282 -10.4259 -10.4259 -10.4205 -10.4205 -10.4185 -10.4185
   -10.4127 -10.4127 -10.4113 -10.4113  -8.3718  -8.3718  -8.2722  -8.2722
    -8.0431  -8.0431  -8.0367  -8.0367  -1.7412  -1.7412  -1.6520  -1.6520
     1.7136   1.7136   1.8930   1.8930   2.4348   2.4348   2.7655   2.7656
     3.0384   3.0384   3.6454   3.6454   3.8440   3.8440   3.9362   3.9362
     4.2318   4.2318   4.3598   4.3598   4.6220   4.6220   4.8037   4.8037
     9.2950   9.2951   9.5102   9.5102  10.0471  10.0471  10.1804  10.1804
    10.6161  10.6161  10.9894  10.9894  13.9071  13.9071  14.1581  14.1581
    14.9232  14.9232  15.1500  15.1500  15.2824  15.2824  15.7251  15.7251
    16.2056  16.2056  16.7827  16.7827  17.0646  17.0646  17.7027  17.7027
    17.9628  17.9628  18.1792  18.1792  18.6387  18.6387  19.3652  19.3652
    19.7184  19.7184  19.9220  19.9220  20.2793  20.2793  20.7645  20.7645
    21.1685  21.1686  21.7730  21.7730  21.9210  21.9210  22.1830  22.1831

          k =-0.5000 0.0000-0.2480 ( 53972 PWs)   bands (ev):

   -10.5292 -10.5292 -10.5224 -10.5224 -10.4685 -10.4685 -10.4680 -10.4680
   -10.4280 -10.4280 -10.4258 -10.4258 -10.4205 -10.4205 -10.4179 -10.4179
   -10.4118 -10.4118 -10.4109 -10.4109  -8.3443  -8.3443  -8.3050  -8.3050
    -8.0417  -8.0417  -8.0336  -8.0336  -1.7532  -1.7532  -1.6289  -1.6289
     1.7754   1.7754   1.9047   1.9047   2.2563   2.2563   2.6738   2.6738
     3.2282   3.2282   3.4637   3.4637   3.9293   3.9293   4.0558   4.0558
     4.2051   4.2051   4.4023   4.4023   4.6425   4.6425   4.7716   4.7716
     9.2195   9.2195   9.4572   9.4572  10.1835  10.1835  10.4984  10.4985
    10.5870  10.5870  10.6009  10.6009  13.9423  13.9423  14.0133  14.0133
    15.0876  15.0876  15.1849  15.1849  15.6149  15.6149  15.7847  15.7847
    16.1051  16.1051  16.5503  16.5503  16.9095  16.9095  17.5179  17.5179
    17.8084  17.8084  18.2007  18.2007  18.6891  18.6891  19.4084  19.4084
    19.7328  19.7328  19.8286  19.8286  20.6113  20.6113  20.9115  20.9115
    21.5646  21.5646  21.6486  21.6486  22.0301  22.0301  22.4015  22.4016

          k =-0.5000 0.0988 0.0000 ( 54020 PWs)   bands (ev):

   -10.5274 -10.5274 -10.5207 -10.5207 -10.4736 -10.4736 -10.4606 -10.4606
   -10.4283 -10.4283 -10.4272 -10.4272 -10.4211 -10.4211 -10.4196 -10.4196
   -10.4135 -10.4135 -10.4114 -10.4114  -8.3748  -8.3748  -8.2541  -8.2541
    -8.0507  -8.0507  -8.0447  -8.0447  -1.7202  -1.7202  -1.6975  -1.6975
     1.6893   1.6893   1.9682   1.9682   2.6943   2.6943   2.7034   2.7034
     3.2808   3.2808   3.2878   3.2878   3.8145   3.8146   4.0302   4.0302
     4.1167   4.1167   4.2235   4.2235   4.6837   4.6837   4.7260   4.7260
     9.2909   9.2909   9.6235   9.6235   9.8049   9.8049  10.2006  10.2006
    10.7265  10.7265  11.1228  11.1228  13.9742  13.9742  14.4325  14.4325
    14.7382  14.7382  15.0359  15.0359  15.2580  15.2580  15.5851  15.5851
    16.5149  16.5149  16.6140  16.6140  17.3500  17.3500  17.3879  17.3879
    18.1013  18.1013  18.2653  18.2653  19.0189  19.0189  19.3333  19.3333
    19.6746  19.6746  19.9370  19.9370  20.3627  20.3627  20.6957  20.6957
    20.7911  20.7911  21.3506  21.3506  21.5225  21.5225  21.7011  21.7011

          k =-0.5000 0.0988 0.1240 ( 54024 PWs)   bands (ev):

   -10.5277 -10.5277 -10.5216 -10.5216 -10.4720 -10.4720 -10.4629 -10.4629
   -10.4286 -10.4286 -10.4267 -10.4267 -10.4213 -10.4213 -10.4188 -10.4188
   -10.4125 -10.4125 -10.4110 -10.4110  -8.3607  -8.3606  -8.2722  -8.2722
    -8.0503  -8.0503  -8.0423  -8.0423  -1.7416  -1.7416  -1.6656  -1.6656
     1.7578   1.7578   1.9572   1.9572   2.4458   2.4458   2.7537   2.7537
     3.0884   3.0884   3.5997   3.5997   3.8838   3.8838   3.9321   3.9321
     4.1022   4.1022   4.3060   4.3060   4.6587   4.6587   4.7562   4.7562
     9.2394   9.2394   9.5288   9.5288  10.0549  10.0549  10.2016  10.2016
    10.6727  10.6727  10.9727  10.9727  14.0174  14.0174  14.2586  14.2586
    14.8942  14.8942  15.1701  15.1701  15.2187  15.2187  15.6901  15.6901
    16.3520  16.3520  16.8148  16.8148  17.1012  17.1012  17.5680  17.5680
    18.0020  18.0020  18.1659  18.1659  18.5987  18.5987  19.3301  19.3301
    19.9022  19.9022  19.9465  19.9465  20.2138  20.2138  20.7757  20.7757
    21.1019  21.1019  21.4900  21.4900  21.6673  21.6674  22.1205  22.1206

          k =-0.5000 0.0988-0.2480 ( 53980 PWs)   bands (ev):

   -10.5280 -10.5280 -10.5225 -10.5225 -10.4684 -10.4684 -10.4671 -10.4671
   -10.4288 -10.4288 -10.4264 -10.4264 -10.4213 -10.4213 -10.4182 -10.4182
   -10.4115 -10.4115 -10.4107 -10.4107  -8.3358  -8.3358  -8.3008  -8.3008
    -8.0489  -8.0489  -8.0409  -8.0409  -1.7514  -1.7514  -1.6453  -1.6453
     1.8695   1.8695   1.9311   1.9311   2.2997   2.2997   2.5869   2.5869
     3.3048   3.3048   3.5214   3.5214   3.7924   3.7924   4.0404   4.0404
     4.1515   4.1515   4.3600   4.3600   4.6787   4.6787   4.7286   4.7286
     9.2095   9.2095   9.4595   9.4595  10.1986  10.1986  10.3840  10.3840
    10.6311  10.6311  10.6876  10.6876  14.0703  14.0703  14.1231  14.1231
    15.0040  15.0040  15.1355  15.1355  15.4998  15.4998  15.6800  15.6800
    16.5261  16.5261  16.5398  16.5398  16.9791  16.9791  17.5779  17.5779
    17.8190  17.8190  18.1785  18.1785  18.5864  18.5864  19.2360  19.2360
    19.7635  19.7635  19.9108  19.9108  20.4832  20.4832  20.7672  20.7672
    21.5481  21.5482  21.6841  21.6841  21.9193  21.9194  22.0639  22.0639

          k =-0.5000 0.1976 0.0000 ( 54062 PWs)   bands (ev):

   -10.5249 -10.5249 -10.5212 -10.5212 -10.4702 -10.4702 -10.4618 -10.4618
   -10.4288 -10.4288 -10.4281 -10.4281 -10.4230 -10.4230 -10.4215 -10.4215
   -10.4126 -10.4126 -10.4112 -10.4112  -8.3417  -8.3417  -8.2687  -8.2687
    -8.0620  -8.0620  -8.0552  -8.0552  -1.7281  -1.7281  -1.7161  -1.7161
     1.7853   1.7853   2.0283   2.0283   2.7091   2.7091   2.9307   2.9307
     3.2570   3.2570   3.2745   3.2745   3.7037   3.7037   3.9749   3.9749
     3.9836   3.9837   4.1483   4.1483   4.6115   4.6115   4.7156   4.7156
     9.2211   9.2211   9.4632   9.4632  10.0298  10.0298  10.2120  10.2120
    10.8586  10.8586  11.0640  11.0640  14.2271  14.2271  14.5705  14.5705
    14.8249  14.8249  14.9283  14.9283  15.3412  15.3412  15.5340  15.5340
    16.7390  16.7390  16.7500  16.7500  17.1349  17.1349  17.1925  17.1925
    18.0030  18.0030  18.1986  18.1986  19.0149  19.0149  19.3132  19.3132
    19.6319  19.6319  20.0640  20.0640  20.4967  20.4967  20.6339  20.6339
    20.8700  20.8700  21.0090  21.0090  21.3425  21.3425  21.6155  21.6155

          k =-0.5000 0.1976 0.1240 ( 54014 PWs)   bands (ev):

   -10.5252 -10.5252 -10.5220 -10.5220 -10.4695 -10.4695 -10.4635 -10.4635
   -10.4292 -10.4292 -10.4274 -10.4274 -10.4231 -10.4231 -10.4205 -10.4205
   -10.4118 -10.4118 -10.4108 -10.4108  -8.3319  -8.3319  -8.2777  -8.2777
    -8.0635  -8.0635  -8.0556  -8.0556  -1.7386  -1.7386  -1.6961  -1.6961
     1.8586   1.8586   2.0414   2.0414   2.5622   2.5623   2.7807   2.7807
     3.1669   3.1669   3.3846   3.3846   3.7439   3.7439   3.9820   3.9820
     4.1048   4.1048   4.2388   4.2388   4.5864   4.5864   4.6995   4.6995
     9.2178   9.2178   9.4458   9.4458  10.1219  10.1219  10.2291  10.2291
    10.7844  10.7844  10.9344  10.9344  14.2905  14.2905  14.4968  14.4968
    14.8379  14.8379  15.0282  15.0282  15.2093  15.2094  15.6012  15.6012
    16.6524  16.6524  16.9294  16.9294  17.2058  17.2058  17.3721  17.3721
    17.9294  17.9294  18.1682  18.1682  18.7464  18.7465  19.0364  19.0364
    19.8464  19.8464  20.0200  20.0200  20.2996  20.2996  20.6813  20.6813
    20.8713  20.8713  21.0649  21.0649  21.5527  21.5528  21.8804  21.8804

          k =-0.5000 0.1976-0.2480 ( 54032 PWs)   bands (ev):

   -10.5255 -10.5255 -10.5228 -10.5228 -10.4679 -10.4679 -10.4661 -10.4661
   -10.4293 -10.4293 -10.4270 -10.4270 -10.4230 -10.4230 -10.4198 -10.4198
   -10.4110 -10.4110 -10.4104 -10.4103  -8.3152  -8.3152  -8.2936  -8.2936
    -8.0635  -8.0635  -8.0574  -8.0574  -1.7422  -1.7422  -1.6827  -1.6827
     1.9757   1.9757   2.0393   2.0393   2.4848   2.4848   2.5420   2.5420
     3.2648   3.2648   3.2850   3.2850   3.8904   3.8904   3.9242   3.9242
     4.2325   4.2325   4.2858   4.2858   4.6009   4.6009   4.6519   4.6519
     9.2242   9.2242   9.4145   9.4145  10.2387  10.2387  10.2911  10.2911
    10.7027  10.7027  10.7455  10.7455  14.3867  14.3867  14.3933  14.3933
    14.8383  14.8383  15.0671  15.0671  15.2432  15.2432  15.6381  15.6381
    16.6686  16.6686  16.8052  16.8052  17.4017  17.4017  17.4836  17.4836
    18.0598  18.0598  18.1017  18.1017  18.4740  18.4740  18.8896  18.8896
    19.6132  19.6132  20.0706  20.0706  20.3406  20.3406  20.4460  20.4460
    21.3859  21.3859  21.4234  21.4234  21.7254  21.7254  21.7714  21.7715

          k =-0.5000-0.2964 0.0000 ( 54044 PWs)   bands (ev):

   -10.5226 -10.5226 -10.5226 -10.5226 -10.4655 -10.4655 -10.4655 -10.4655
   -10.4284 -10.4283 -10.4283 -10.4283 -10.4236 -10.4236 -10.4235 -10.4235
   -10.4116 -10.4116 -10.4116 -10.4116  -8.3007  -8.3007  -8.3006  -8.3006
    -8.0639  -8.0639  -8.0639  -8.0639  -1.7287  -1.7287  -1.7286  -1.7286
     1.9291   1.9291   1.9291   1.9291   2.9420   2.9420   2.9420   2.9421
     3.2169   3.2169   3.2169   3.2169   3.7413   3.7413   3.7413   3.7413
     4.0519   4.0519   4.0519   4.0519   4.6566   4.6566   4.6566   4.6566
     9.2988   9.2988   9.2988   9.2988  10.1626  10.1626  10.1626  10.1626
    10.9829  10.9829  10.9829  10.9829  14.5140  14.5140  14.5140  14.5140
    14.8490  14.8490  14.8490  14.8490  15.4372  15.4372  15.4372  15.4372
    16.9590  16.9590  16.9590  16.9590  16.9874  16.9874  16.9874  16.9874
    18.1837  18.1837  18.1837  18.1837  18.8207  18.8207  18.8207  18.8207
    19.9375  19.9375  19.9375  19.9375  20.5260  20.5260  20.5260  20.5260
    21.0169  21.0169  21.0170  21.0170  21.3667  21.3667  21.3667  21.3667

          k =-0.5000-0.2964 0.1240 ( 54076 PWs)   bands (ev):

   -10.5231 -10.5231 -10.5231 -10.5231 -10.4662 -10.4662 -10.4662 -10.4662
   -10.4283 -10.4283 -10.4283 -10.4283 -10.4229 -10.4229 -10.4229 -10.4229
   -10.4111 -10.4111 -10.4111 -10.4111  -8.2988  -8.2988  -8.2987  -8.2987
    -8.0664  -8.0664  -8.0664  -8.0664  -1.7240  -1.7240  -1.7240  -1.7240
     1.9759   1.9759   1.9760   1.9760   2.8296   2.8296   2.8296   2.8296
     3.1020   3.1020   3.1020   3.1020   3.8544   3.8544   3.8544   3.8544
     4.1856   4.1856   4.1856   4.1856   4.6048   4.6048   4.6048   4.6048
     9.3025   9.3025   9.3026   9.3026  10.2028  10.2028  10.2028  10.2028
    10.8769  10.8769  10.8769  10.8769  14.5692  14.5692  14.5692  14.5692
    14.8303  14.8303  14.8304  14.8304  15.3808  15.3808  15.3808  15.3808
    16.9075  16.9075  16.9075  16.9075  17.2727  17.2727  17.2727  17.2727
    18.1420  18.1420  18.1421  18.1421  18.7061  18.7061  18.7061  18.7061
    19.8266  19.8266  19.8266  19.8266  20.5544  20.5544  20.5544  20.5545
    20.9500  20.9500  20.9500  20.9501  21.5304  21.5304  21.5304  21.5305

          k =-0.5000-0.2964-0.2480 ( 54048 PWs)   bands (ev):

   -10.5236 -10.5236 -10.5235 -10.5235 -10.4668 -10.4668 -10.4668 -10.4668
   -10.4282 -10.4282 -10.4282 -10.4282 -10.4224 -10.4224 -10.4224 -10.4224
   -10.4105 -10.4105 -10.4105 -10.4105  -8.2968  -8.2968  -8.2968  -8.2968
    -8.0689  -8.0689  -8.0689  -8.0689  -1.7194  -1.7194  -1.7194  -1.7194
     2.0333   2.0333   2.0333   2.0333   2.7307   2.7307   2.7307   2.7307
     2.9867   2.9867   2.9868   2.9868   4.0453   4.0453   4.0453   4.0453
     4.2081   4.2081   4.2081   4.2081   4.5625   4.5625   4.5626   4.5626
     9.3072   9.3072   9.3072   9.3072  10.2671  10.2671  10.2671  10.2671
    10.7454  10.7454  10.7454  10.7454  14.5986  14.5986  14.5986  14.5986
    14.8429  14.8429  14.8430  14.8430  15.3547  15.3547  15.3548  15.3548
    16.8312  16.8312  16.8312  16.8312  17.5570  17.5570  17.5570  17.5570
    18.1708  18.1708  18.1708  18.1708  18.5670  18.5670  18.5670  18.5670
    19.5627  19.5627  19.5628  19.5628  20.5897  20.5897  20.5897  20.5897
    21.2936  21.2936  21.2936  21.2936  21.6036  21.6036  21.6036  21.6036

     the Fermi energy is     5.9368 ev
     (compare with:     5.9404 eV, computed in scf)

     Writing all to output data dir out/mp-23291.save/
 
     init_run     :      0.48s CPU      0.53s WALL (       1 calls)
     electrons    :    667.13s CPU    672.41s WALL (       1 calls)

     Called by init_run:
     wfcinit      :      0.00s CPU      0.00s WALL (       1 calls)
     potinit      :      0.08s CPU      0.10s WALL (       1 calls)
     hinit0       :      0.24s CPU      0.27s WALL (       1 calls)

     Called by electrons:
     c_bands      :    667.12s CPU    672.40s WALL (       1 calls)
     v_of_rho     :      0.07s CPU      0.08s WALL (       1 calls)

     Called by c_bands:
     init_us_2    :      0.45s CPU      0.46s WALL (      72 calls)
     init_us_2:cp :      0.45s CPU      0.46s WALL (      72 calls)
     cegterg      :    627.80s CPU    632.23s WALL (     151 calls)

     Called by *egterg:
     cdiaghg      :     39.16s CPU     39.41s WALL (    2460 calls)
     h_psi        :    378.71s CPU    382.03s WALL (    2611 calls)
     g_psi        :      4.42s CPU      4.43s WALL (    2388 calls)

     Called by h_psi:
     h_psi:calbec :     44.33s CPU     44.54s WALL (    2611 calls)
     vloc_psi     :    283.45s CPU    285.41s WALL (    2611 calls)
     add_vuspsi   :     47.70s CPU     47.72s WALL (    2611 calls)

     General routines
     calbec       :     44.32s CPU     44.54s WALL (    2611 calls)
     fft          :      0.02s CPU      0.04s WALL (      10 calls)
     fftw         :    246.98s CPU    248.74s WALL (  261012 calls)
 
     Parallel routines
 
     PWSCF        :  11m11.28s CPU  11m22.76s WALL

 
   This run was terminated on:  16: 7:32   3Jan2024            

=------------------------------------------------------------------------------=
   JOB DONE.
=------------------------------------------------------------------------------=
