 
             +---------------------------------------------------+
             |                                                   |
             |                   WANNIER90                       |
             |                                                   |
             +---------------------------------------------------+
             |                                                   |
             |        Welcome to the Maximally-Localized         |
             |        Generalized Wannier Functions code         |
             |            http://www.wannier.org                 |
             |                                                   |
             |                                                   |
             |  Wannier90 Developer Group:                       |
             |    Giovanni Pizzi    (EPFL)                       |
             |    Valerio Vitale    (Cambridge)                  |
             |    David Vanderbilt  (Rutgers University)         |
             |    Nicola Marzari    (EPFL)                       |
             |    Ivo Souza         (Universidad del Pais Vasco) |
             |    Arash A. Mostofi  (Imperial College London)    |
             |    Jonathan R. Yates (University of Oxford)       |
             |                                                   |
             |  For the full list of Wannier90 3.x authors,      |
             |  please check the code documentation and the      |
             |  README on the GitHub page of the code            |
             |                                                   |
             |                                                   |
             |  Please cite                                      |
             |                                                   |
             |  [ref] "Wannier90 as a community code:            |
             |        new features and applications",            |
             |        G. Pizzi et al., J. Phys. Cond. Matt. 32,  |
             |        165902 (2020).                             |
             |        http://doi.org/10.1088/1361-648X/ab51ff    |
             |                                                   |
             |  in any publications arising from the use of      |
             |  this code. For the method please cite            |
             |                                                   |
             |  [ref] "Maximally Localized Generalised Wannier   |
             |         Functions for Composite Energy Bands"     |
             |         N. Marzari and D. Vanderbilt              |
             |         Phys. Rev. B 56 12847 (1997)              |
             |                                                   |
             |  [ref] "Maximally Localized Wannier Functions     |
             |         for Entangled Energy Bands"               |
             |         I. Souza, N. Marzari and D. Vanderbilt    |
             |         Phys. Rev. B 65 035109 (2001)             |
             |                                                   |
             |                                                   |
             | Copyright (c) 1996-2020                           |
             |        The Wannier90 Developer Group and          |
             |        individual contributors                    |
             |                                                   |
             |      Release: 3.1.0        5th March    2020      |
             |                                                   |
             | This program is free software; you can            |
             | redistribute it and/or modify it under the terms  |
             | of the GNU General Public License as published by |
             | the Free Software Foundation; either version 2 of |
             | the License, or (at your option) any later version|
             |                                                   |
             | This program is distributed in the hope that it   |
             | will be useful, but WITHOUT ANY WARRANTY; without |
             | even the implied warranty of MERCHANTABILITY or   |
             | FITNESS FOR A PARTICULAR PURPOSE. See the GNU     |
             | General Public License for more details.          |
             |                                                   |
             | You should have received a copy of the GNU General|
             | Public License along with this program; if not,   |
             | write to the Free Software Foundation, Inc.,      |
             | 675 Mass Ave, Cambridge, MA 02139, USA.           |
             |                                                   |
             +---------------------------------------------------+
             |    Execution started on  3Jan2024 at 14:51:16     |
             +---------------------------------------------------+
 
 ******************************************************************************
 * -> Using CODATA 2006 constant values                                       *
 *    (http://physics.nist.gov/cuu/Constants/index.html)                      *
 * -> Using Bohr value from CODATA                                            *
 ******************************************************************************
 

 Running in parallel on   8 CPUs

 
                                    ------
                                    SYSTEM
                                    ------
 
                              Lattice Vectors (Ang)
                    a_1     2.005661  -1.157969   6.545878
                    a_2     0.000000   2.315938   6.545878
                    a_3    -2.005661  -1.157969   6.545878
 
                   Unit Cell Volume:      91.21655  (Ang^3)
 
                        Reciprocal-Space Vectors (Ang^-1)
                    b_1     1.566363  -0.904340   0.319956
                    b_2     0.000000   1.808680   0.319956
                    b_3    -1.566363  -0.904340   0.319956
  
 *----------------------------------------------------------------------------*
 |   Site       Fractional Coordinate          Cartesian Coordinate (Ang)     |
 +----------------------------------------------------------------------------+
 | Al   1   0.00024   0.00024   0.00024   |    0.00000   0.00000   0.00474    |
 | Ga   1   0.49987   0.49987   0.49987   |    0.00000   0.00000   9.81628    |
 | As   1   0.87516   0.87516   0.87516   |    0.00000  -0.00000  17.18599    |
 | As   2   0.37473   0.37473   0.37473   |    0.00000   0.00000   7.35883    |
 *----------------------------------------------------------------------------*
                                ------------
                                K-POINT GRID
                                ------------
  
             Grid size = 10 x 10 x 10      Total points = 1000
  
  
 *---------------------------------- MAIN ------------------------------------*
 |  Number of Wannier Functions               :                 6             |
 |  Number of Objective Wannier Functions     :                 6             |
 |  Number of input Bloch states              :                 6             |
 |  Output verbosity (1=low, 5=high)          :                 1             |
 |  Timing Level (1=low, 5=high)              :                 1             |
 |  Optimisation (0=memory, 3=speed)          :                 3             |
 |  Length Unit                               :               Ang             |
 |  Post-processing setup (write *.nnkp)      :                 F             |
 |  Using Gamma-only branch of algorithms     :                 F             |
 *----------------------------------------------------------------------------*
 *------------------------------- WANNIERISE ---------------------------------*
 |  Total number of iterations                :               500             |
 |  Number of CG steps before reset           :                 5             |
 |  Trial step length for line search         :             2.000             |
 |  Convergence tolerence                     :         0.100E-09             |
 |  Convergence window                        :                -1             |
 |  Iterations between writing output         :                 1             |
 |  Iterations between backing up to disk     :               100             |
 |  Write r^2_nm to file                      :                 F             |
 |  Write xyz WF centres to file              :                 F             |
 |  Write on-site energies <0n|H|0n> to file  :                 F             |
 |  Use guiding centre to control phases      :                 F             |
 |  Use phases for initial projections        :                 F             |
 *----------------------------------------------------------------------------*
 Time to read parameters        0.070 (sec)

 *---------------------------------- K-MESH ----------------------------------*
 +----------------------------------------------------------------------------+
 |                    Distance to Nearest-Neighbour Shells                    |
 |                    ------------------------------------                    |
 |          Shell             Distance (Ang^-1)          Multiplicity         |
 |          -----             -----------------          ------------         |
 |             1                   0.095987                      2            |
 |             2                   0.183676                      6            |
 |             3                   0.191854                      6            |
 |             4                   0.191974                      2            |
 |             5                   0.221569                      6            |
 |             6                   0.241467                      6            |
 |             7                   0.287881                      6            |
 |             8                   0.287961                      2            |
 |             9                   0.313273                      6            |
 |            10                   0.313419                      6            |
 |            11                   0.327648                     12            |
 |            12                   0.363148                      6            |
 |            13                   0.367352                      6            |
 |            14                   0.367415                     12            |
 |            15                   0.367539                      6            |
 |            16                   0.383709                      6            |
 |            17                   0.383948                      2            |
 |            18                   0.395532                      6            |
 |            19                   0.395706                      6            |
 |            20                   0.425459                      6            |
 |            21                   0.425513                     12            |
 |            22                   0.443138                      6            |
 |            23                   0.453566                      6            |
 |            24                   0.479600                     12            |
 |            25                   0.479934                      2            |
 |            26                   0.482791                     12            |
 |            27                   0.482934                      6            |
 |            28                   0.483076                      6            |
 |            29                   0.495351                     12            |
 |            30                   0.495536                     12            |
 |            31                   0.504565                     12            |
 |            32                   0.504701                      6            |
 |            33                   0.528351                     12            |
 |            34                   0.542604                      6            |
 |            35                   0.542688                     12            |
 |            36                   0.542942                      6            |
 +----------------------------------------------------------------------------+
 | The b-vectors are chosen automatically                                     |
 | The following shells are used:   1,  2                                     |
 +----------------------------------------------------------------------------+
 |                        Shell   # Nearest-Neighbours                        |
 |                        -----   --------------------                        |
 |                          1               2                                 |
 |                          2               6                                 |
 +----------------------------------------------------------------------------+
 | Completeness relation is fully satisfied [Eq. (B1), PRB 56, 12847 (1997)]  |
 +----------------------------------------------------------------------------+
 |                  b_k Vectors (Ang^-1) and Weights (Ang^2)                  |
 |                  ----------------------------------------                  |
 |            No.         b_k(x)      b_k(y)      b_k(z)        w_b           |
 |            ---        --------------------------------     --------        |
 |             1         0.000000    0.000000    0.095987    50.871764        |
 |             2         0.000000    0.000000   -0.095987    50.871764        |
 |             3        -0.156636   -0.090434    0.031996    10.189558        |
 |             4         0.000000    0.180868    0.031996    10.189558        |
 |             5         0.156636   -0.090434    0.031996    10.189558        |
 |             6         0.000000   -0.180868   -0.031996    10.189558        |
 |             7         0.156636    0.090434   -0.031996    10.189558        |
 |             8        -0.156636    0.090434   -0.031996    10.189558        |
 +----------------------------------------------------------------------------+
 |                           b_k Directions (Ang^-1)                          |
 |                           -----------------------                          |
 |            No.           x           y           z                         |
 |            ---        --------------------------------                     |
 |             1         0.000000    0.000000    0.095987                     |
 |             2        -0.156636   -0.090434    0.031996                     |
 |             3         0.000000    0.180868    0.031996                     |
 |             4         0.156636   -0.090434    0.031996                     |
 +----------------------------------------------------------------------------+
  
 Time to get kmesh              0.662 (sec)
 *============================================================================*
 |                              MEMORY ESTIMATE                               |
 |         Maximum RAM allocated during each phase of the calculation         |
 *============================================================================*
 |                            Wannierise:           13.23 Mb                  |
 |                          plot_wannier:           13.23 Mb                  |
 *----------------------------------------------------------------------------*
  
 Starting a new Wannier90 calculation ...


 Reading overlaps from mp-1228891.mmn    :  Created on  3Jan2024 at 14:51: 1

 Reading projections from mp-1228891.amn :  Created on  3Jan2024 at 14:50:57  with SCDM

 Time to read overlaps          0.276 (sec)

 Writing checkpoint file mp-1228891.chk... done

 
 *------------------------------- WANNIERISE ---------------------------------*
 +--------------------------------------------------------------------+<-- CONV
 | Iter  Delta Spread     RMS Gradient      Spread (Ang^2)      Time  |<-- CONV
 +--------------------------------------------------------------------+<-- CONV
 
 ------------------------------------------------------------------------------
 Initial State
  WF centre and spread    1  ( -1.705193,  1.041045,  0.648386 )     3.82232245
  WF centre and spread    2  (  0.065129,  0.422047, -2.678244 )     4.58891175
  WF centre and spread    3  (  0.056308, -0.073471, -2.092488 )     4.25237915
  WF centre and spread    4  (  1.725448,  1.146770,  0.647150 )     3.92500182
  WF centre and spread    5  ( -0.125029, -0.334006, -2.694268 )     4.74739895
  WF centre and spread    6  ( -0.014997,  0.116728,  7.790130 )     4.51255557
  Sum of centres and spreads (  0.001667,  2.319113,  1.620666 )    25.84856969
 
      0     0.258E+02     0.0000000000       25.8485699162       0.00  <-- CONV
        O_D=      0.9849044 O_OD=      4.4073800 O_TOT=     25.8485699 <-- SPRD
 ------------------------------------------------------------------------------
 Cycle:      1
  WF centre and spread    1  ( -1.710646,  1.042540,  0.645729 )     3.54897094
  WF centre and spread    2  (  0.063143,  0.419374, -2.673941 )     4.21342619
  WF centre and spread    3  (  0.056550, -0.072103, -2.089850 )     3.95581642
  WF centre and spread    4  (  1.725901,  1.152363,  0.644418 )     3.61432059
  WF centre and spread    5  ( -0.121873, -0.337525, -2.689929 )     4.31147361
  WF centre and spread    6  ( -0.012214,  0.113122,  7.785326 )     4.18752133
  Sum of centres and spreads (  0.000862,  2.317772,  1.621752 )    23.83152908
 
      1    -0.202E+01     0.5914981973       23.8315293090       0.01  <-- CONV
        O_D=      0.5645022 O_OD=      2.8107416 O_TOT=     23.8315293 <-- SPRD
 Delta: O_D= -0.4204022E+00 O_OD= -0.1596638E+01 O_TOT= -0.2017041E+01 <-- DLTA
 ------------------------------------------------------------------------------
 Cycle:      2
  WF centre and spread    1  ( -1.714633,  1.043256,  0.645629 )     3.43029152
  WF centre and spread    2  (  0.061173,  0.415198, -2.670644 )     4.04263130
  WF centre and spread    3  (  0.055169, -0.070563, -2.091586 )     3.79067887
  WF centre and spread    4  (  1.728112,  1.155347,  0.644648 )     3.47046094
  WF centre and spread    5  ( -0.118447, -0.336664, -2.686344 )     4.10910558
  WF centre and spread    6  ( -0.010887,  0.110468,  7.780640 )     4.00031312
  Sum of centres and spreads (  0.000487,  2.317041,  1.622343 )    22.84348133
 
      2    -0.988E+00     0.8032174921       22.8434815529       0.02  <-- CONV
        O_D=      0.3508152 O_OD=      2.0363809 O_TOT=     22.8434816 <-- SPRD
 Delta: O_D= -0.2136871E+00 O_OD= -0.7743607E+00 O_TOT= -0.9880478E+00 <-- DLTA
 ------------------------------------------------------------------------------
 Cycle:      3
  WF centre and spread    1  ( -1.718411,  1.044233,  0.646437 )     3.35974845
  WF centre and spread    2  (  0.059590,  0.410292, -2.667655 )     3.92500015
  WF centre and spread    3  (  0.053634, -0.068960, -2.094608 )     3.67834966
  WF centre and spread    4  (  1.730774,  1.157431,  0.645527 )     3.37998291
  WF centre and spread    5  ( -0.115433, -0.334323, -2.682966 )     3.96253938
  WF centre and spread    6  ( -0.009860,  0.108052,  7.775939 )     3.87215061
  Sum of centres and spreads (  0.000294,  2.316725,  1.622676 )    22.17777116
 
      3    -0.666E+00     0.7048065726       22.1777713891       0.02  <-- CONV
        O_D=      0.1989198 O_OD=      1.5225660 O_TOT=     22.1777714 <-- SPRD
 Delta: O_D= -0.1518953E+00 O_OD= -0.5138148E+00 O_TOT= -0.6657102E+00 <-- DLTA
 ------------------------------------------------------------------------------
 Cycle:      4
  WF centre and spread    1  ( -1.721024,  1.045211,  0.647296 )     3.32283134
  WF centre and spread    2  (  0.058779,  0.406690, -2.665682 )     3.86018822
  WF centre and spread    3  (  0.052701, -0.067907, -2.097041 )     3.61644265
  WF centre and spread    4  (  1.732623,  1.158596,  0.646334 )     3.33427055
  WF centre and spread    5  ( -0.113778, -0.332364, -2.680556 )     3.88149014
  WF centre and spread    6  ( -0.009150,  0.106468,  7.772544 )     3.79837965
  Sum of centres and spreads (  0.000152,  2.316694,  1.622895 )    21.81360256
 
      4    -0.364E+00     0.5581376759       21.8136027926       0.03  <-- CONV
        O_D=      0.0991072 O_OD=      1.2582101 O_TOT=     21.8136028 <-- SPRD
 Delta: O_D= -0.9981267E-01 O_OD= -0.2643559E+00 O_TOT= -0.3641686E+00 <-- DLTA
 ------------------------------------------------------------------------------
 Cycle:      5
  WF centre and spread    1  ( -1.722575,  1.045974,  0.647882 )     3.30484869
  WF centre and spread    2  (  0.058499,  0.404552, -2.664597 )     3.82922225
  WF centre and spread    3  (  0.052273, -0.067352, -2.098483 )     3.58500222
  WF centre and spread    4  (  1.733629,  1.159214,  0.646813 )     3.31242599
  WF centre and spread    5  ( -0.113088, -0.331222, -2.679147 )     3.84191529
  WF centre and spread    6  ( -0.008743,  0.105594,  7.770592 )     3.75959644
  Sum of centres and spreads ( -0.000004,  2.316761,  1.623061 )    21.63301088
 
      5    -0.181E+00     0.4018576262       21.6330111104       0.04  <-- CONV
        O_D=      0.0473371 O_OD=      1.1293885 O_TOT=     21.6330111 <-- SPRD
 Delta: O_D= -0.5177005E-01 O_OD= -0.1288216E+00 O_TOT= -0.1805917E+00 <-- DLTA
 ------------------------------------------------------------------------------
 Cycle:      6
  WF centre and spread    1  ( -1.723478,  1.046507,  0.648216 )     3.29633786
  WF centre and spread    2  (  0.058421,  0.403312, -2.663968 )     3.81225163
  WF centre and spread    3  (  0.052075, -0.067008, -2.099298 )     3.56820845
  WF centre and spread    4  (  1.734179,  1.159544,  0.646994 )     3.30126512
  WF centre and spread    5  ( -0.112897, -0.330582, -2.678304 )     3.82180928
  WF centre and spread    6  ( -0.008529,  0.105088,  7.769548 )     3.73741035
  Sum of centres and spreads ( -0.000228,  2.316860,  1.623187 )    21.53728269
 
      6    -0.957E-01     0.2793709196       21.5372829240       0.05  <-- CONV
        O_D=      0.0291160 O_OD=      1.0518814 O_TOT=     21.5372829 <-- SPRD
 Delta: O_D= -0.1822108E-01 O_OD= -0.7750711E-01 O_TOT= -0.9572819E-01 <-- DLTA
 ------------------------------------------------------------------------------
 Cycle:      7
  WF centre and spread    1  ( -1.723541,  1.046578,  0.648226 )     3.29238918
  WF centre and spread    2  (  0.058428,  0.403243, -2.663906 )     3.80541185
  WF centre and spread    3  (  0.052082, -0.066945, -2.099334 )     3.56195727
  WF centre and spread    4  (  1.734189,  1.159562,  0.646961 )     3.29749953
  WF centre and spread    5  ( -0.112988, -0.330556, -2.678228 )     3.81505611
  WF centre and spread    6  ( -0.008486,  0.105011,  7.769487 )     3.73017032
  Sum of centres and spreads ( -0.000316,  2.316893,  1.623205 )    21.50248427
 
      7    -0.348E-01     0.2092794272       21.5024844960       0.06  <-- CONV
        O_D=      0.0211834 O_OD=      1.0250155 O_TOT=     21.5024845 <-- SPRD
 Delta: O_D= -0.7932590E-02 O_OD= -0.2686584E-01 O_TOT= -0.3479843E-01 <-- DLTA
 ------------------------------------------------------------------------------
 Cycle:      8
  WF centre and spread    1  ( -1.723656,  1.046731,  0.648215 )     3.28936010
  WF centre and spread    2  (  0.058448,  0.403106, -2.663809 )     3.79846951
  WF centre and spread    3  (  0.052075, -0.066816, -2.099357 )     3.55781807
  WF centre and spread    4  (  1.734225,  1.159605,  0.646858 )     3.29482155
  WF centre and spread    5  ( -0.113200, -0.330486, -2.678083 )     3.81010942
  WF centre and spread    6  ( -0.008422,  0.104831,  7.769423 )     3.72435436
  Sum of centres and spreads ( -0.000530,  2.316971,  1.623247 )    21.47493302
 
      8    -0.276E-01     0.1419124133       21.4749332472       0.06  <-- CONV
        O_D=      0.0182118 O_OD=      1.0004359 O_TOT=     21.4749332 <-- SPRD
 Delta: O_D= -0.2971610E-02 O_OD= -0.2457964E-01 O_TOT= -0.2755125E-01 <-- DLTA
 ------------------------------------------------------------------------------
 Cycle:      9
  WF centre and spread    1  ( -1.723771,  1.046898,  0.648199 )     3.28737886
  WF centre and spread    2  (  0.058453,  0.402955, -2.663695 )     3.79301006
  WF centre and spread    3  (  0.052060, -0.066685, -2.099432 )     3.55485781
  WF centre and spread    4  (  1.734284,  1.159676,  0.646760 )     3.29330175
  WF centre and spread    5  ( -0.113421, -0.330387, -2.677905 )     3.80769105
  WF centre and spread    6  ( -0.008373,  0.104607,  7.769356 )     3.71938526
  Sum of centres and spreads ( -0.000767,  2.317063,  1.623283 )    21.45562479
 
      9    -0.193E-01     0.1208968687       21.4556250186       0.07  <-- CONV
        O_D=      0.0170152 O_OD=      0.9823243 O_TOT=     21.4556250 <-- SPRD
 Delta: O_D= -0.1196647E-02 O_OD= -0.1811158E-01 O_TOT= -0.1930823E-01 <-- DLTA
 ------------------------------------------------------------------------------
 Cycle:     10
  WF centre and spread    1  ( -1.723889,  1.047064,  0.648197 )     3.28587277
  WF centre and spread    2  (  0.058432,  0.402781, -2.663558 )     3.78864672
  WF centre and spread    3  (  0.052057, -0.066582, -2.099600 )     3.55292606
  WF centre and spread    4  (  1.734371,  1.159779,  0.646691 )     3.29245917
  WF centre and spread    5  ( -0.113582, -0.330264, -2.677706 )     3.80681121
  WF centre and spread    6  ( -0.008360,  0.104374,  7.769261 )     3.71535210
  Sum of centres and spreads ( -0.000971,  2.317153,  1.623286 )    21.44206802
 
     10    -0.136E-01     0.1029680935       21.4420682517       0.08  <-- CONV
        O_D=      0.0162378 O_OD=      0.9695449 O_TOT=     21.4420683 <-- SPRD
 Delta: O_D= -0.7773938E-03 O_OD= -0.1277937E-01 O_TOT= -0.1355677E-01 <-- DLTA
 ------------------------------------------------------------------------------
 Cycle:     11
  WF centre and spread    1  ( -1.724029,  1.047236,  0.648211 )     3.28468506
  WF centre and spread    2  (  0.058396,  0.402555, -2.663408 )     3.78531525
  WF centre and spread    3  (  0.052079, -0.066539, -2.099829 )     3.55231497
  WF centre and spread    4  (  1.734484,  1.159913,  0.646652 )     3.29208011
  WF centre and spread    5  ( -0.113630, -0.330124, -2.677513 )     3.80660748
  WF centre and spread    6  ( -0.008400,  0.104174,  7.769157 )     3.71278156
  Sum of centres and spreads ( -0.001099,  2.317216,  1.623270 )    21.43378444
 
     11    -0.828E-02     0.0792377615       21.4337846693       0.09  <-- CONV
        O_D=      0.0159238 O_OD=      0.9615754 O_TOT=     21.4337847 <-- SPRD
 Delta: O_D= -0.3139883E-03 O_OD= -0.7969594E-02 O_TOT= -0.8283582E-02 <-- DLTA
 ------------------------------------------------------------------------------
 Cycle:     12
  WF centre and spread    1  ( -1.724227,  1.047464,  0.648245 )     3.28322895
  WF centre and spread    2  (  0.058351,  0.402221, -2.663219 )     3.78209433
  WF centre and spread    3  (  0.052135, -0.066539, -2.100142 )     3.55259960
  WF centre and spread    4  (  1.734643,  1.160104,  0.646631 )     3.29186495
  WF centre and spread    5  ( -0.113581, -0.329953, -2.677295 )     3.80677085
  WF centre and spread    6  ( -0.008482,  0.103950,  7.769031 )     3.71084369
  Sum of centres and spreads ( -0.001162,  2.317248,  1.623251 )    21.42740238
 
     12    -0.638E-02     0.0656733200       21.4274026077       0.09  <-- CONV
        O_D=      0.0151855 O_OD=      0.9559316 O_TOT=     21.4274026 <-- SPRD
 Delta: O_D= -0.7382617E-03 O_OD= -0.5643800E-02 O_TOT= -0.6382062E-02 <-- DLTA
 ------------------------------------------------------------------------------
 Cycle:     13
  WF centre and spread    1  ( -1.724260,  1.047504,  0.648247 )     3.28273123
  WF centre and spread    2  (  0.058347,  0.402168, -2.663190 )     3.78146786
  WF centre and spread    3  (  0.052150, -0.066543, -2.100182 )     3.55247297
  WF centre and spread    4  (  1.734668,  1.160133,  0.646628 )     3.29165259
  WF centre and spread    5  ( -0.113574, -0.329930, -2.677268 )     3.80647816
  WF centre and spread    6  ( -0.008491,  0.103907,  7.769023 )     3.71060448
  Sum of centres and spreads ( -0.001159,  2.317238,  1.623257 )    21.42540728
 
     13    -0.200E-02     0.0546138054       21.4254075157       0.10  <-- CONV
        O_D=      0.0147682 O_OD=      0.9543538 O_TOT=     21.4254075 <-- SPRD
 Delta: O_D= -0.4173199E-03 O_OD= -0.1577772E-02 O_TOT= -0.1995092E-02 <-- DLTA
 ------------------------------------------------------------------------------
 Cycle:     14
  WF centre and spread    1  ( -1.724382,  1.047659,  0.648245 )     3.28142185
  WF centre and spread    2  (  0.058333,  0.401983, -2.663088 )     3.77984330
  WF centre and spread    3  (  0.052213, -0.066569, -2.100329 )     3.55317113
  WF centre and spread    4  (  1.734767,  1.160244,  0.646607 )     3.29144144
  WF centre and spread    5  ( -0.113562, -0.329845, -2.677171 )     3.80635803
  WF centre and spread    6  ( -0.008532,  0.103736,  7.769008 )     3.71082449
  Sum of centres and spreads ( -0.001163,  2.317208,  1.623272 )    21.42306024
 
     14    -0.235E-02     0.0348804281       21.4230604711       0.11  <-- CONV
        O_D=      0.0146096 O_OD=      0.9521654 O_TOT=     21.4230605 <-- SPRD
 Delta: O_D= -0.1586601E-03 O_OD= -0.2188385E-02 O_TOT= -0.2347045E-02 <-- DLTA
 ------------------------------------------------------------------------------
 Cycle:     15
  WF centre and spread    1  ( -1.724538,  1.047874,  0.648233 )     3.27992196
  WF centre and spread    2  (  0.058312,  0.401768, -2.662959 )     3.77791978
  WF centre and spread    3  (  0.052310, -0.066618, -2.100528 )     3.55410408
  WF centre and spread    4  (  1.734898,  1.160400,  0.646566 )     3.29129173
  WF centre and spread    5  ( -0.113570, -0.329740, -2.677048 )     3.80652309
  WF centre and spread    6  ( -0.008599,  0.103497,  7.769016 )     3.71107349
  Sum of centres and spreads ( -0.001187,  2.317181,  1.623281 )    21.42083413
 
     15    -0.223E-02     0.0398311436       21.4208343562       0.12  <-- CONV
        O_D=      0.0144368 O_OD=      0.9501120 O_TOT=     21.4208344 <-- SPRD
 Delta: O_D= -0.1727232E-03 O_OD= -0.2053392E-02 O_TOT= -0.2226115E-02 <-- DLTA
 ------------------------------------------------------------------------------
 Cycle:     16
  WF centre and spread    1  ( -1.724653,  1.048054,  0.648217 )     3.27908776
  WF centre and spread    2  (  0.058298,  0.401635, -2.662865 )     3.77668664
  WF centre and spread    3  (  0.052397, -0.066666, -2.100687 )     3.55472793
  WF centre and spread    4  (  1.734998,  1.160529,  0.646522 )     3.29122059
  WF centre and spread    5  ( -0.113599, -0.329669, -2.676955 )     3.80679398
  WF centre and spread    6  ( -0.008654,  0.103295,  7.769044 )     3.71106018
  Sum of centres and spreads ( -0.001213,  2.317177,  1.623275 )    21.41957707
 
     16    -0.126E-02     0.0324081317       21.4195773007       0.13  <-- CONV
        O_D=      0.0143763 O_OD=      0.9489155 O_TOT=     21.4195773 <-- SPRD
 Delta: O_D= -0.6055137E-04 O_OD= -0.1196504E-02 O_TOT= -0.1257056E-02 <-- DLTA
 ------------------------------------------------------------------------------
 Cycle:     17
  WF centre and spread    1  ( -1.724767,  1.048257,  0.648190 )     3.27861938
  WF centre and spread    2  (  0.058290,  0.401533, -2.662775 )     3.77568475
  WF centre and spread    3  (  0.052500, -0.066723, -2.100847 )     3.55521171
  WF centre and spread    4  (  1.735100,  1.160670,  0.646458 )     3.29116484
  WF centre and spread    5  ( -0.113659, -0.329605, -2.676865 )     3.80714375
  WF centre and spread    6  ( -0.008712,  0.103062,  7.769106 )     3.71080715
  Sum of centres and spreads ( -0.001247,  2.317193,  1.623267 )    21.41863159
 
     17    -0.945E-03     0.0259134863       21.4186318245       0.13  <-- CONV
        O_D=      0.0143494 O_OD=      0.9479969 O_TOT=     21.4186318 <-- SPRD
 Delta: O_D= -0.2686627E-04 O_OD= -0.9186099E-03 O_TOT= -0.9454762E-03 <-- DLTA
 ------------------------------------------------------------------------------
 Cycle:     18
  WF centre and spread    1  ( -1.724855,  1.048445,  0.648157 )     3.27847288
  WF centre and spread    2  (  0.058288,  0.401480, -2.662706 )     3.77499187
  WF centre and spread    3  (  0.052600, -0.066775, -2.100970 )     3.55548311
  WF centre and spread    4  (  1.735183,  1.160794,  0.646383 )     3.29112572
  WF centre and spread    5  ( -0.113742, -0.329559, -2.676795 )     3.80746049
  WF centre and spread    6  ( -0.008758,  0.102835,  7.769197 )     3.71048326
  Sum of centres and spreads ( -0.001285,  2.317220,  1.623266 )    21.41801734
 
     18    -0.614E-03     0.0223028501       21.4180175699       0.14  <-- CONV
        O_D=      0.0142760 O_OD=      0.9474560 O_TOT=     21.4180176 <-- SPRD
 Delta: O_D= -0.7340479E-04 O_OD= -0.5408498E-03 O_TOT= -0.6142546E-03 <-- DLTA
 ------------------------------------------------------------------------------
 Cycle:     19
  WF centre and spread    1  ( -1.724861,  1.048479,  0.648146 )     3.27851832
  WF centre and spread    2  (  0.058292,  0.401491, -2.662700 )     3.77491223
  WF centre and spread    3  (  0.052620, -0.066782, -2.100978 )     3.55537537
  WF centre and spread    4  (  1.735190,  1.160811,  0.646359 )     3.29108025
  WF centre and spread    5  ( -0.113775, -0.329556, -2.676789 )     3.80743005
  WF centre and spread    6  ( -0.008761,  0.102783,  7.769233 )     3.71034693
  Sum of centres and spreads ( -0.001294,  2.317226,  1.623271 )    21.41766315
 
     19    -0.354E-03     0.0210807383       21.4176633802       0.15  <-- CONV
        O_D=      0.0142092 O_OD=      0.9471687 O_TOT=     21.4176634 <-- SPRD
 Delta: O_D= -0.6683484E-04 O_OD= -0.2873548E-03 O_TOT= -0.3541897E-03 <-- DLTA
 ------------------------------------------------------------------------------
 Cycle:     20
  WF centre and spread    1  ( -1.724879,  1.048580,  0.648110 )     3.27869423
  WF centre and spread    2  (  0.058303,  0.401521, -2.662679 )     3.77476457
  WF centre and spread    3  (  0.052683, -0.066806, -2.101004 )     3.55522856
  WF centre and spread    4  (  1.735215,  1.160862,  0.646289 )     3.29102714
  WF centre and spread    5  ( -0.113871, -0.329545, -2.676771 )     3.80748613
  WF centre and spread    6  ( -0.008771,  0.102631,  7.769339 )     3.71009789
  Sum of centres and spreads ( -0.001320,  2.317243,  1.623284 )    21.41729853
 
     20    -0.365E-03     0.0152181149       21.4172987629       0.16  <-- CONV
        O_D=      0.0141612 O_OD=      0.9468521 O_TOT=     21.4172988 <-- SPRD
 Delta: O_D= -0.4798634E-04 O_OD= -0.3166310E-03 O_TOT= -0.3646173E-03 <-- DLTA
 ------------------------------------------------------------------------------
 Cycle:     21
  WF centre and spread    1  ( -1.724905,  1.048723,  0.648061 )     3.27888456
  WF centre and spread    2  (  0.058317,  0.401559, -2.662651 )     3.77457014
  WF centre and spread    3  (  0.052775, -0.066845, -2.101048 )     3.55512588
  WF centre and spread    4  (  1.735251,  1.160935,  0.646194 )     3.29097114
  WF centre and spread    5  ( -0.114000, -0.329529, -2.676746 )     3.80761184
  WF centre and spread    6  ( -0.008788,  0.102421,  7.769483 )     3.70983588
  Sum of centres and spreads ( -0.001351,  2.317264,  1.623292 )    21.41699945
 
     21    -0.299E-03     0.0146588350       21.4169996778       0.16  <-- CONV
        O_D=      0.0141243 O_OD=      0.9465899 O_TOT=     21.4169997 <-- SPRD
 Delta: O_D= -0.3692508E-04 O_OD= -0.2621600E-03 O_TOT= -0.2990851E-03 <-- DLTA
 ------------------------------------------------------------------------------
 Cycle:     22
  WF centre and spread    1  ( -1.724940,  1.048901,  0.647998 )     3.27901925
  WF centre and spread    2  (  0.058333,  0.401601, -2.662614 )     3.77432343
  WF centre and spread    3  (  0.052893, -0.066899, -2.101110 )     3.55510898
  WF centre and spread    4  (  1.735299,  1.161029,  0.646079 )     3.29089620
  WF centre and spread    5  ( -0.114154, -0.329510, -2.676715 )     3.80778429
  WF centre and spread    6  ( -0.008814,  0.102164,  7.769656 )     3.70961926
  Sum of centres and spreads ( -0.001383,  2.317285,  1.623294 )    21.41675141
 
     22    -0.248E-03     0.0132622011       21.4167516442       0.17  <-- CONV
        O_D=      0.0141066 O_OD=      0.9463596 O_TOT=     21.4167516 <-- SPRD
 Delta: O_D= -0.1770984E-04 O_OD= -0.2303238E-03 O_TOT= -0.2480336E-03 <-- DLTA
 ------------------------------------------------------------------------------
 Cycle:     23
  WF centre and spread    1  ( -1.724981,  1.049089,  0.647933 )     3.27904557
  WF centre and spread    2  (  0.058350,  0.401636, -2.662574 )     3.77405389
  WF centre and spread    3  (  0.053020, -0.066961, -2.101179 )     3.55519279
  WF centre and spread    4  (  1.735352,  1.161130,  0.645962 )     3.29080444
  WF centre and spread    5  ( -0.114307, -0.329490, -2.676684 )     3.80796075
  WF centre and spread    6  ( -0.008845,  0.101896,  7.769837 )     3.70951275
  Sum of centres and spreads ( -0.001412,  2.317301,  1.623293 )    21.41657019
 
     23    -0.181E-03     0.0116371177       21.4165704251       0.18  <-- CONV
        O_D=      0.0141019 O_OD=      0.9461830 O_TOT=     21.4165704 <-- SPRD
 Delta: O_D= -0.4679590E-05 O_OD= -0.1765395E-03 O_TOT= -0.1812191E-03 <-- DLTA
 ------------------------------------------------------------------------------
 Cycle:     24
  WF centre and spread    1  ( -1.725033,  1.049313,  0.647856 )     3.27895240
  WF centre and spread    2  (  0.058369,  0.401664, -2.662524 )     3.77371671
  WF centre and spread    3  (  0.053170, -0.067034, -2.101263 )     3.55539844
  WF centre and spread    4  (  1.735418,  1.161250,  0.645827 )     3.29068303
  WF centre and spread    5  ( -0.114476, -0.329464, -2.676649 )     3.80814272
  WF centre and spread    6  ( -0.008883,  0.101581,  7.770047 )     3.70952535
  Sum of centres and spreads ( -0.001437,  2.317310,  1.623294 )    21.41641864
 
     24    -0.152E-03     0.0100059558       21.4164188694       0.19  <-- CONV
        O_D=      0.0141004 O_OD=      0.9460330 O_TOT=     21.4164189 <-- SPRD
 Delta: O_D= -0.1512896E-05 O_OD= -0.1500428E-03 O_TOT= -0.1515557E-03 <-- DLTA
 ------------------------------------------------------------------------------
 Cycle:     25
  WF centre and spread    1  ( -1.725041,  1.049343,  0.647846 )     3.27888419
  WF centre and spread    2  (  0.058373,  0.401663, -2.662517 )     3.77365446
  WF centre and spread    3  (  0.053189, -0.067043, -2.101274 )     3.55542870
  WF centre and spread    4  (  1.735427,  1.161266,  0.645810 )     3.29065210
  WF centre and spread    5  ( -0.114496, -0.329459, -2.676645 )     3.80813296
  WF centre and spread    6  ( -0.008888,  0.101538,  7.770075 )     3.70955655
  Sum of centres and spreads ( -0.001436,  2.317307,  1.623296 )    21.41630896
 
     25    -0.110E-03     0.0127007427       21.4163091879       0.20  <-- CONV
        O_D=      0.0140752 O_OD=      0.9459485 O_TOT=     21.4163092 <-- SPRD
 Delta: O_D= -0.2520978E-04 O_OD= -0.8447171E-04 O_TOT= -0.1096815E-03 <-- DLTA
 ------------------------------------------------------------------------------
 Cycle:     26
  WF centre and spread    1  ( -1.725068,  1.049454,  0.647808 )     3.27867542
  WF centre and spread    2  (  0.058386,  0.401666, -2.662491 )     3.77346879
  WF centre and spread    3  (  0.053263, -0.067077, -2.101313 )     3.55559443
  WF centre and spread    4  (  1.735462,  1.161324,  0.645747 )     3.29057027
  WF centre and spread    5  ( -0.114573, -0.329445, -2.676630 )     3.80815543
  WF centre and spread    6  ( -0.008905,  0.101379,  7.770178 )     3.70972406
  Sum of centres and spreads ( -0.001435,  2.317300,  1.623300 )    21.41618839
 
     26    -0.121E-03     0.0081673451       21.4161886216       0.20  <-- CONV
        O_D=      0.0140686 O_OD=      0.9458345 O_TOT=     21.4161886 <-- SPRD
 Delta: O_D= -0.6525927E-05 O_OD= -0.1140404E-03 O_TOT= -0.1205663E-03 <-- DLTA
 ------------------------------------------------------------------------------
 Cycle:     27
  WF centre and spread    1  ( -1.725114,  1.049651,  0.647738 )     3.27836327
  WF centre and spread    2  (  0.058411,  0.401680, -2.662447 )     3.77318232
  WF centre and spread    3  (  0.053396, -0.067139, -2.101381 )     3.55585850
  WF centre and spread    4  (  1.735523,  1.161426,  0.645633 )     3.29043839
  WF centre and spread    5  ( -0.114719, -0.329422, -2.676605 )     3.80821579
  WF centre and spread    6  ( -0.008935,  0.101096,  7.770365 )     3.70998922
  Sum of centres and spreads ( -0.001438,  2.317292,  1.623304 )    21.41604750
 
     27    -0.141E-03     0.0094058178       21.4160477306       0.21  <-- CONV
        O_D=      0.0140625 O_OD=      0.9456997 O_TOT=     21.4160477 <-- SPRD
 Delta: O_D= -0.6121241E-05 O_OD= -0.1347697E-03 O_TOT= -0.1408910E-03 <-- DLTA
 ------------------------------------------------------------------------------
 Cycle:     28
  WF centre and spread    1  ( -1.725168,  1.049894,  0.647651 )     3.27809134
  WF centre and spread    2  (  0.058443,  0.401705, -2.662395 )     3.77290178
  WF centre and spread    3  (  0.053561, -0.067216, -2.101464 )     3.55612372
  WF centre and spread    4  (  1.735595,  1.161552,  0.645491 )     3.29028466
  WF centre and spread    5  ( -0.114905, -0.329396, -2.676574 )     3.80829168
  WF centre and spread    6  ( -0.008970,  0.100748,  7.770596 )     3.71022536
  Sum of centres and spreads ( -0.001443,  2.317287,  1.623305 )    21.41591854
 
     28    -0.129E-03     0.0093544059       21.4159187662       0.22  <-- CONV
        O_D=      0.0140666 O_OD=      0.9455667 O_TOT=     21.4159188 <-- SPRD
 Delta: O_D=  0.4065424E-05 O_OD= -0.1330298E-03 O_TOT= -0.1289644E-03 <-- DLTA
 ------------------------------------------------------------------------------
 Cycle:     29
  WF centre and spread    1  ( -1.725250,  1.050276,  0.647514 )     3.27784440
  WF centre and spread    2  (  0.058498,  0.401755, -2.662317 )     3.77257671
  WF centre and spread    3  (  0.053821, -0.067335, -2.101591 )     3.55643499
  WF centre and spread    4  (  1.735707,  1.161747,  0.645267 )     3.29005436
  WF centre and spread    5  ( -0.115206, -0.329357, -2.676527 )     3.80840027
  WF centre and spread    6  ( -0.009023,  0.100202,  7.770958 )     3.71044556
  Sum of centres and spreads ( -0.001452,  2.317288,  1.623304 )    21.41575630
 
     29    -0.162E-03     0.0095793335       21.4157565322       0.23  <-- CONV
        O_D=      0.0140830 O_OD=      0.9453880 O_TOT=     21.4157565 <-- SPRD
 Delta: O_D=  0.1644198E-04 O_OD= -0.1786759E-03 O_TOT= -0.1622340E-03 <-- DLTA
 ------------------------------------------------------------------------------
 Cycle:     30
  WF centre and spread    1  ( -1.725350,  1.050769,  0.647336 )     3.27769808
  WF centre and spread    2  (  0.058573,  0.401833, -2.662220 )     3.77227180
  WF centre and spread    3  (  0.054156, -0.067485, -2.101747 )     3.55671169
  WF centre and spread    4  (  1.735848,  1.161995,  0.644975 )     3.28977064
  WF centre and spread    5  ( -0.115607, -0.329309, -2.676468 )     3.80851756
  WF centre and spread    6  ( -0.009087,  0.099492,  7.771430 )     3.71060473
  Sum of centres and spreads ( -0.001467,  2.317295,  1.623305 )    21.41557452
 
     30    -0.182E-03     0.0107807107       21.4155747484       0.24  <-- CONV
        O_D=      0.0140920 O_OD=      0.9451973 O_TOT=     21.4155747 <-- SPRD
 Delta: O_D=  0.8931370E-05 O_OD= -0.1907153E-03 O_TOT= -0.1817839E-03 <-- DLTA
 ------------------------------------------------------------------------------
 Cycle:     31
  WF centre and spread    1  ( -1.725352,  1.050801,  0.647322 )     3.27775290
  WF centre and spread    2  (  0.058580,  0.401847, -2.662216 )     3.77228932
  WF centre and spread    3  (  0.054178, -0.067492, -2.101751 )     3.55662633
  WF centre and spread    4  (  1.735854,  1.162009,  0.644951 )     3.28973560
  WF centre and spread    5  ( -0.115644, -0.329308, -2.676467 )     3.80847586
  WF centre and spread    6  ( -0.009087,  0.099441,  7.771469 )     3.71053673
  Sum of centres and spreads ( -0.001472,  2.317298,  1.623309 )    21.41541675
 
     31    -0.158E-03     0.0138877841       21.4154169792       0.24  <-- CONV
        O_D=      0.0140628 O_OD=      0.9450687 O_TOT=     21.4154170 <-- SPRD
 Delta: O_D= -0.2914577E-04 O_OD= -0.1286234E-03 O_TOT= -0.1577691E-03 <-- DLTA
 ------------------------------------------------------------------------------
 Cycle:     32
  WF centre and spread    1  ( -1.725359,  1.050887,  0.647286 )     3.27790209
  WF centre and spread    2  (  0.058600,  0.401884, -2.662206 )     3.77236078
  WF centre and spread    3  (  0.054239, -0.067512, -2.101763 )     3.55648250
  WF centre and spread    4  (  1.735871,  1.162047,  0.644889 )     3.28967712
  WF centre and spread    5  ( -0.115742, -0.329305, -2.676461 )     3.80842664
  WF centre and spread    6  ( -0.009091,  0.099305,  7.771572 )     3.71042256
  Sum of centres and spreads ( -0.001482,  2.317305,  1.623316 )    21.41527169
 
     32    -0.145E-03     0.0100664876       21.4152719163       0.25  <-- CONV
        O_D=      0.0140439 O_OD=      0.9449425 O_TOT=     21.4152719 <-- SPRD
 Delta: O_D= -0.1894657E-04 O_OD= -0.1261164E-03 O_TOT= -0.1450630E-03 <-- DLTA
 ------------------------------------------------------------------------------
 Cycle:     33
  WF centre and spread    1  ( -1.725371,  1.051015,  0.647232 )     3.27807610
  WF centre and spread    2  (  0.058629,  0.401934, -2.662189 )     3.77244625
  WF centre and spread    3  (  0.054331, -0.067546, -2.101786 )     3.55634480
  WF centre and spread    4  (  1.735898,  1.162104,  0.644800 )     3.28959991
  WF centre and spread    5  ( -0.115882, -0.329301, -2.676453 )     3.80837939
  WF centre and spread    6  ( -0.009097,  0.099107,  7.771718 )     3.71030361
  Sum of centres and spreads ( -0.001494,  2.317314,  1.623321 )    21.41515005
 
     33    -0.122E-03     0.0093740654       21.4151502794       0.26  <-- CONV
        O_D=      0.0140309 O_OD=      0.9448339 O_TOT=     21.4151503 <-- SPRD
 Delta: O_D= -0.1298015E-04 O_OD= -0.1086568E-03 O_TOT= -0.1216369E-03 <-- DLTA
 ------------------------------------------------------------------------------
 Cycle:     34
  WF centre and spread    1  ( -1.725393,  1.051200,  0.647155 )     3.27824657
  WF centre and spread    2  (  0.058669,  0.402000, -2.662164 )     3.77253093
  WF centre and spread    3  (  0.054466, -0.067598, -2.101826 )     3.55623422
  WF centre and spread    4  (  1.735940,  1.162189,  0.644674 )     3.28948817
  WF centre and spread    5  ( -0.116079, -0.329292, -2.676440 )     3.80832869
  WF centre and spread    6  ( -0.009110,  0.098823,  7.771923 )     3.71020202
  Sum of centres and spreads ( -0.001507,  2.317323,  1.623323 )    21.41503059
 
     34    -0.119E-03     0.0089258298       21.4150308231       0.27  <-- CONV
        O_D=      0.0140279 O_OD=      0.9447174 O_TOT=     21.4150308 <-- SPRD
 Delta: O_D= -0.2972291E-05 O_OD= -0.1164840E-03 O_TOT= -0.1194563E-03 <-- DLTA
 ------------------------------------------------------------------------------
 Cycle:     35
  WF centre and spread    1  ( -1.725423,  1.051426,  0.647063 )     3.27834906
  WF centre and spread    2  (  0.058716,  0.402070, -2.662130 )     3.77258410
  WF centre and spread    3  (  0.054630, -0.067664, -2.101880 )     3.55619068
  WF centre and spread    4  (  1.735994,  1.162295,  0.644526 )     3.28935059
  WF centre and spread    5  ( -0.116308, -0.329280, -2.676422 )     3.80828401
  WF centre and spread    6  ( -0.009129,  0.098483,  7.772166 )     3.71016499
  Sum of centres and spreads ( -0.001520,  2.317329,  1.623323 )    21.41492342
 
     35    -0.107E-03     0.0085964610       21.4149236500       0.28  <-- CONV
        O_D=      0.0140333 O_OD=      0.9446049 O_TOT=     21.4149236 <-- SPRD
 Delta: O_D=  0.5380054E-05 O_OD= -0.1125531E-03 O_TOT= -0.1071731E-03 <-- DLTA
 ------------------------------------------------------------------------------
 Cycle:     36
  WF centre and spread    1  ( -1.725471,  1.051727,  0.646944 )     3.27835436
  WF centre and spread    2  (  0.058776,  0.402146, -2.662081 )     3.77258623
  WF centre and spread    3  (  0.054848, -0.067753, -2.101959 )     3.55624692
  WF centre and spread    4  (  1.736072,  1.162438,  0.644336 )     3.28916485
  WF centre and spread    5  ( -0.116600, -0.329259, -2.676397 )     3.80823322
  WF centre and spread    6  ( -0.009158,  0.098032,  7.772480 )     3.71022748
  Sum of centres and spreads ( -0.001533,  2.317332,  1.623323 )    21.41481306
 
     36    -0.110E-03     0.0081101918       21.4148132882       0.28  <-- CONV
        O_D=      0.0140480 O_OD=      0.9444797 O_TOT=     21.4148133 <-- SPRD
 Delta: O_D=  0.1474988E-04 O_OD= -0.1251117E-03 O_TOT= -0.1103618E-03 <-- DLTA
 ------------------------------------------------------------------------------
 Cycle:     37
  WF centre and spread    1  ( -1.725479,  1.051756,  0.646933 )     3.27829269
  WF centre and spread    2  (  0.058781,  0.402146, -2.662074 )     3.77254583
  WF centre and spread    3  (  0.054868, -0.067762, -2.101969 )     3.55627035
  WF centre and spread    4  (  1.736082,  1.162454,  0.644320 )     3.28913488
  WF centre and spread    5  ( -0.116622, -0.329255, -2.676393 )     3.80821294
  WF centre and spread    6  ( -0.009161,  0.097990,  7.772507 )     3.71025833
  Sum of centres and spreads ( -0.001530,  2.317329,  1.623324 )    21.41471501
 
     37    -0.980E-04     0.0117708744       21.4147152385       0.29  <-- CONV
        O_D=      0.0140258 O_OD=      0.9444039 O_TOT=     21.4147152 <-- SPRD
 Delta: O_D= -0.2218632E-04 O_OD= -0.7586336E-04 O_TOT= -0.9804968E-04 <-- DLTA
 ------------------------------------------------------------------------------
 Cycle:     38
  WF centre and spread    1  ( -1.725504,  1.051859,  0.646897 )     3.27811485
  WF centre and spread    2  (  0.058799,  0.402150, -2.662052 )     3.77244274
  WF centre and spread    3  (  0.054939, -0.067792, -2.102003 )     3.55639655
  WF centre and spread    4  (  1.736116,  1.162506,  0.644264 )     3.28905880
  WF centre and spread    5  ( -0.116703, -0.329242, -2.676381 )     3.80819258
  WF centre and spread    6  ( -0.009174,  0.097841,  7.772603 )     3.71040618
  Sum of centres and spreads ( -0.001527,  2.317322,  1.623328 )    21.41461171
 
     38    -0.103E-03     0.0076989033       21.4146119374       0.30  <-- CONV
        O_D=      0.0140208 O_OD=      0.9443056 O_TOT=     21.4146119 <-- SPRD
 Delta: O_D= -0.5049955E-05 O_OD= -0.9825113E-04 O_TOT= -0.1033011E-03 <-- DLTA
 ------------------------------------------------------------------------------
 Cycle:     39
  WF centre and spread    1  ( -1.725547,  1.052042,  0.646829 )     3.27784958
  WF centre and spread    2  (  0.058833,  0.402166, -2.662014 )     3.77229046
  WF centre and spread    3  (  0.055070, -0.067847, -2.102062 )     3.55659841
  WF centre and spread    4  (  1.736174,  1.162598,  0.644161 )     3.28893504
  WF centre and spread    5  ( -0.116857, -0.329222, -2.676361 )     3.80817507
  WF centre and spread    6  ( -0.009197,  0.097574,  7.772778 )     3.71064327
  Sum of centres and spreads ( -0.001525,  2.317312,  1.623331 )    21.41449182
 
     39    -0.120E-03     0.0086363883       21.4144920553       0.31  <-- CONV
        O_D=      0.0140165 O_OD=      0.9441900 O_TOT=     21.4144921 <-- SPRD
 Delta: O_D= -0.4265543E-05 O_OD= -0.1156165E-03 O_TOT= -0.1198821E-03 <-- DLTA
 ------------------------------------------------------------------------------
 Cycle:     40
  WF centre and spread    1  ( -1.725598,  1.052270,  0.646745 )     3.27761754
  WF centre and spread    2  (  0.058876,  0.402193, -2.661969 )     3.77215161
  WF centre and spread    3  (  0.055233, -0.067916, -2.102135 )     3.55680208
  WF centre and spread    4  (  1.736244,  1.162712,  0.644032 )     3.28879147
  WF centre and spread    5  ( -0.117053, -0.329198, -2.676336 )     3.80815734
  WF centre and spread    6  ( -0.009224,  0.097243,  7.772994 )     3.71086138
  Sum of centres and spreads ( -0.001523,  2.317304,  1.623331 )    21.41438142
 
     40    -0.110E-03     0.0087262491       21.4143816538       0.32  <-- CONV
        O_D=      0.0140217 O_OD=      0.9440745 O_TOT=     21.4143817 <-- SPRD
 Delta: O_D=  0.5127197E-05 O_OD= -0.1155287E-03 O_TOT= -0.1104015E-03 <-- DLTA
 ------------------------------------------------------------------------------
 Cycle:     41
  WF centre and spread    1  ( -1.725672,  1.052615,  0.646617 )     3.27741698
  WF centre and spread    2  (  0.058945,  0.402242, -2.661903 )     3.77202046
  WF centre and spread    3  (  0.055480, -0.068018, -2.102243 )     3.55702632
  WF centre and spread    4  (  1.736347,  1.162884,  0.643835 )     3.28858683
  WF centre and spread    5  ( -0.117359, -0.329165, -2.676298 )     3.80813020
  WF centre and spread    6  ( -0.009263,  0.096742,  7.773321 )     3.71106663
  Sum of centres and spreads ( -0.001522,  2.317300,  1.623330 )    21.41424743
 
     41    -0.134E-03     0.0088493240       21.4142476586       0.32  <-- CONV
        O_D=      0.0140376 O_OD=      0.9439246 O_TOT=     21.4142477 <-- SPRD
 Delta: O_D=  0.1591150E-04 O_OD= -0.1499067E-03 O_TOT= -0.1339952E-03 <-- DLTA
 ------------------------------------------------------------------------------
 Cycle:     42
  WF centre and spread    1  ( -1.725765,  1.053071,  0.646447 )     3.27730548
  WF centre and spread    2  (  0.059038,  0.402319, -2.661819 )     3.77193232
  WF centre and spread    3  (  0.055806, -0.068151, -2.102380 )     3.55721265
  WF centre and spread    4  (  1.736481,  1.163107,  0.643573 )     3.28833096
  WF centre and spread    5  ( -0.117775, -0.329123, -2.676248 )     3.80808772
  WF centre and spread    6  ( -0.009311,  0.096077,  7.773758 )     3.71122515
  Sum of centres and spreads ( -0.001526,  2.317300,  1.623331 )    21.41409429
 
     42    -0.153E-03     0.0098863397       21.4140945229       0.33  <-- CONV
        O_D=      0.0140526 O_OD=      0.9437564 O_TOT=     21.4140945 <-- SPRD
 Delta: O_D=  0.1504178E-04 O_OD= -0.1681775E-03 O_TOT= -0.1531357E-03 <-- DLTA
 ------------------------------------------------------------------------------
 Cycle:     43
  WF centre and spread    1  ( -1.725768,  1.053101,  0.646434 )     3.27735789
  WF centre and spread    2  (  0.059045,  0.402332, -2.661816 )     3.77194990
  WF centre and spread    3  (  0.055829, -0.068158, -2.102384 )     3.55713305
  WF centre and spread    4  (  1.736488,  1.163121,  0.643551 )     3.28829896
  WF centre and spread    5  ( -0.117812, -0.329122, -2.676246 )     3.80805081
  WF centre and spread    6  ( -0.009312,  0.096028,  7.773794 )     3.71116263
  Sum of centres and spreads ( -0.001531,  2.317303,  1.623334 )    21.41395324
 
     43    -0.141E-03     0.0131405126       21.4139534740       0.34  <-- CONV
        O_D=      0.0140259 O_OD=      0.9436420 O_TOT=     21.4139535 <-- SPRD
 Delta: O_D= -0.2669464E-04 O_OD= -0.1143542E-03 O_TOT= -0.1410489E-03 <-- DLTA
 ------------------------------------------------------------------------------
 Cycle:     44
  WF centre and spread    1  ( -1.725777,  1.053182,  0.646400 )     3.27749735
  WF centre and spread    2  (  0.059066,  0.402365, -2.661805 )     3.77201558
  WF centre and spread    3  (  0.055889, -0.068178, -2.102396 )     3.55699974
  WF centre and spread    4  (  1.736505,  1.163156,  0.643496 )     3.28824631
  WF centre and spread    5  ( -0.117909, -0.329118, -2.676240 )     3.80800893
  WF centre and spread    6  ( -0.009316,  0.095902,  7.773887 )     3.71105669
  Sum of centres and spreads ( -0.001542,  2.317309,  1.623340 )    21.41382461
 
     44    -0.129E-03     0.0095198621       21.4138248442       0.35  <-- CONV
        O_D=      0.0140082 O_OD=      0.9435311 O_TOT=     21.4138248 <-- SPRD
 Delta: O_D= -0.1772999E-04 O_OD= -0.1108998E-03 O_TOT= -0.1286298E-03 <-- DLTA
 ------------------------------------------------------------------------------
 Cycle:     45
  WF centre and spread    1  ( -1.725792,  1.053306,  0.646348 )     3.27766411
  WF centre and spread    2  (  0.059097,  0.402411, -2.661789 )     3.77209138
  WF centre and spread    3  (  0.055982, -0.068210, -2.102421 )     3.55687150
  WF centre and spread    4  (  1.736533,  1.163212,  0.643413 )     3.28817554
  WF centre and spread    5  ( -0.118052, -0.329112, -2.676231 )     3.80796905
  WF centre and spread    6  ( -0.009323,  0.095711,  7.774024 )     3.71094215
  Sum of centres and spreads ( -0.001555,  2.317318,  1.623345 )    21.41371372
 
     45    -0.111E-03     0.0088367836       21.4137139523       0.35  <-- CONV
        O_D=      0.0139963 O_OD=      0.9434322 O_TOT=     21.4137140 <-- SPRD
 Delta: O_D= -0.1193133E-04 O_OD= -0.9896052E-04 O_TOT= -0.1108919E-03 <-- DLTA
 ------------------------------------------------------------------------------
 Cycle:     46
  WF centre and spread    1  ( -1.725817,  1.053487,  0.646273 )     3.27782629
  WF centre and spread    2  (  0.059141,  0.402471, -2.661764 )     3.77215890
  WF centre and spread    3  (  0.056119, -0.068260, -2.102462 )     3.55677186
  WF centre and spread    4  (  1.736577,  1.163296,  0.643297 )     3.28807473
  WF centre and spread    5  ( -0.118254, -0.329103, -2.676215 )     3.80792809
  WF centre and spread    6  ( -0.009336,  0.095435,  7.774218 )     3.71084318
  Sum of centres and spreads ( -0.001570,  2.317327,  1.623347 )    21.41360305
 
     46    -0.111E-03     0.0085960330       21.4136032804       0.36  <-- CONV
        O_D=      0.0139932 O_OD=      0.9433245 O_TOT=     21.4136033 <-- SPRD
 Delta: O_D= -0.3031840E-05 O_OD= -0.1076401E-03 O_TOT= -0.1106720E-03 <-- DLTA
 ------------------------------------------------------------------------------
 Cycle:     47
  WF centre and spread    1  ( -1.725850,  1.053698,  0.646188 )     3.27791239
  WF centre and spread    2  (  0.059190,  0.402531, -2.661732 )     3.77218677
  WF centre and spread    3  (  0.056280, -0.068321, -2.102515 )     3.55674264
  WF centre and spread    4  (  1.736632,  1.163395,  0.643165 )     3.28795811
  WF centre and spread    5  ( -0.118481, -0.329089, -2.676197 )     3.80789719
  WF centre and spread    6  ( -0.009354,  0.095119,  7.774437 )     3.71081067
  Sum of centres and spreads ( -0.001584,  2.317333,  1.623347 )    21.41350777
 
     47    -0.953E-04     0.0081849709       21.4135080017       0.37  <-- CONV
        O_D=      0.0139963 O_OD=      0.9432261 O_TOT=     21.4135080 <-- SPRD
 Delta: O_D=  0.3114156E-05 O_OD= -0.9839282E-04 O_TOT= -0.9527866E-04 <-- DLTA
 ------------------------------------------------------------------------------
 Cycle:     48
  WF centre and spread    1  ( -1.725902,  1.053976,  0.646078 )     3.27790031
  WF centre and spread    2  (  0.059253,  0.402595, -2.661686 )     3.77215967
  WF centre and spread    3  (  0.056489, -0.068402, -2.102591 )     3.55681143
  WF centre and spread    4  (  1.736709,  1.163529,  0.642998 )     3.28780326
  WF centre and spread    5  ( -0.118765, -0.329067, -2.676169 )     3.80786489
  WF centre and spread    6  ( -0.009380,  0.094704,  7.774718 )     3.71087186
  Sum of centres and spreads ( -0.001596,  2.317335,  1.623348 )    21.41341142
 
     48    -0.964E-04     0.0076044425       21.4134116468       0.38  <-- CONV
        O_D=      0.0140102 O_OD=      0.9431160 O_TOT=     21.4134116 <-- SPRD
 Delta: O_D=  0.1381946E-04 O_OD= -0.1101744E-03 O_TOT= -0.9635489E-04 <-- DLTA
 ------------------------------------------------------------------------------
 Cycle:     49
  WF centre and spread    1  ( -1.725910,  1.054004,  0.646069 )     3.27784378
  WF centre and spread    2  (  0.059258,  0.402594, -2.661680 )     3.77212259
  WF centre and spread    3  (  0.056509, -0.068410, -2.102601 )     3.55683421
  WF centre and spread    4  (  1.736719,  1.163543,  0.642984 )     3.28777645
  WF centre and spread    5  ( -0.118787, -0.329063, -2.676166 )     3.80784696
  WF centre and spread    6  ( -0.009384,  0.094664,  7.774743 )     3.71089894
  Sum of centres and spreads ( -0.001594,  2.317333,  1.623348 )    21.41332293
 
     49    -0.885E-04     0.0111967112       21.4133231630       0.39  <-- CONV
        O_D=      0.0139898 O_OD=      0.9430479 O_TOT=     21.4133232 <-- SPRD
 Delta: O_D= -0.2037827E-04 O_OD= -0.6810557E-04 O_TOT= -0.8848384E-04 <-- DLTA
 ------------------------------------------------------------------------------
 Cycle:     50
  WF centre and spread    1  ( -1.725936,  1.054100,  0.646034 )     3.27768215
  WF centre and spread    2  (  0.059278,  0.402597, -2.661659 )     3.77202810
  WF centre and spread    3  (  0.056579, -0.068438, -2.102635 )     3.55695226
  WF centre and spread    4  (  1.736753,  1.163592,  0.642934 )     3.28770957
  WF centre and spread    5  ( -0.118868, -0.329049, -2.676154 )     3.80783038
  WF centre and spread    6  ( -0.009396,  0.094525,  7.774829 )     3.71102841
  Sum of centres and spreads ( -0.001591,  2.317327,  1.623351 )    21.41323086
 
     50    -0.921E-04     0.0073107656       21.4132310889       0.40  <-- CONV
        O_D=      0.0139850 O_OD=      0.9429606 O_TOT=     21.4132311 <-- SPRD
 Delta: O_D= -0.4765837E-05 O_OD= -0.8730822E-04 O_TOT= -0.9207406E-04 <-- DLTA
 ------------------------------------------------------------------------------
 Cycle:     51
  WF centre and spread    1  ( -1.725982,  1.054278,  0.645969 )     3.27743253
  WF centre and spread    2  (  0.059315,  0.402608, -2.661622 )     3.77188231
  WF centre and spread    3  (  0.056710, -0.068491, -2.102694 )     3.55714742
  WF centre and spread    4  (  1.736812,  1.163682,  0.642840 )     3.28759752
  WF centre and spread    5  ( -0.119027, -0.329027, -2.676132 )     3.80781739
  WF centre and spread    6  ( -0.009417,  0.094267,  7.774993 )     3.71124374
  Sum of centres and spreads ( -0.001588,  2.317318,  1.623353 )    21.41312091
 
     51    -0.110E-03     0.0081653608       21.4131211425       0.40  <-- CONV
        O_D=      0.0139814 O_OD=      0.9428542 O_TOT=     21.4131211 <-- SPRD
 Delta: O_D= -0.3568885E-05 O_OD= -0.1063775E-03 O_TOT= -0.1099464E-03 <-- DLTA
 ------------------------------------------------------------------------------
 Cycle:     52
  WF centre and spread    1  ( -1.726036,  1.054499,  0.645888 )     3.27720961
  WF centre and spread    2  (  0.059363,  0.402630, -2.661578 )     3.77174462
  WF centre and spread    3  (  0.056875, -0.068556, -2.102767 )     3.55734704
  WF centre and spread    4  (  1.736884,  1.163793,  0.642721 )     3.28746795
  WF centre and spread    5  ( -0.119231, -0.329001, -2.676106 )     3.80780385
  WF centre and spread    6  ( -0.009443,  0.093946,  7.775196 )     3.71144540
  Sum of centres and spreads ( -0.001586,  2.317311,  1.623354 )    21.41301849
 
     52    -0.102E-03     0.0084125580       21.4130187166       0.41  <-- CONV
        O_D=      0.0139865 O_OD=      0.9427467 O_TOT=     21.4130187 <-- SPRD
 Delta: O_D=  0.5098683E-05 O_OD= -0.1075245E-03 O_TOT= -0.1024259E-03 <-- DLTA
 ------------------------------------------------------------------------------
 Cycle:     53
  WF centre and spread    1  ( -1.726111,  1.054822,  0.645768 )     3.27702135
  WF centre and spread    2  (  0.059436,  0.402671, -2.661517 )     3.77161490
  WF centre and spread    3  (  0.057117, -0.068650, -2.102870 )     3.55755966
  WF centre and spread    4  (  1.736986,  1.163953,  0.642546 )     3.28729187
  WF centre and spread    5  ( -0.119536, -0.328967, -2.676068 )     3.80778138
  WF centre and spread    6  ( -0.009478,  0.093477,  7.775494 )     3.71162963
  Sum of centres and spreads ( -0.001585,  2.317307,  1.623354 )    21.41289879
 
     53    -0.120E-03     0.0084333231       21.4128990233       0.42  <-- CONV
        O_D=      0.0139998 O_OD=      0.9426137 O_TOT=     21.4128990 <-- SPRD
 Delta: O_D=  0.1327948E-04 O_OD= -0.1329728E-03 O_TOT= -0.1196933E-03 <-- DLTA
 ------------------------------------------------------------------------------
 Cycle:     54
  WF centre and spread    1  ( -1.726205,  1.055245,  0.645610 )     3.27691734
  WF centre and spread    2  (  0.059535,  0.402737, -2.661440 )     3.77152683
  WF centre and spread    3  (  0.057433, -0.068771, -2.102998 )     3.55773398
  WF centre and spread    4  (  1.737117,  1.164160,  0.642313 )     3.28707325
  WF centre and spread    5  ( -0.119949, -0.328924, -2.676018 )     3.80774258
  WF centre and spread    6  ( -0.009521,  0.092861,  7.775889 )     3.71176938
  Sum of centres and spreads ( -0.001590,  2.317308,  1.623355 )    21.41276335
 
     54    -0.135E-03     0.0093167860       21.4127635784       0.43  <-- CONV
        O_D=      0.0140144 O_OD=      0.9424636 O_TOT=     21.4127636 <-- SPRD
 Delta: O_D=  0.1459588E-04 O_OD= -0.1500408E-03 O_TOT= -0.1354449E-03 <-- DLTA
 ------------------------------------------------------------------------------
 Cycle:     55
  WF centre and spread    1  ( -1.726208,  1.055274,  0.645597 )     3.27696782
  WF centre and spread    2  (  0.059543,  0.402749, -2.661437 )     3.77154608
  WF centre and spread    3  (  0.057456, -0.068778, -2.103003 )     3.55765945
  WF centre and spread    4  (  1.737123,  1.164172,  0.642294 )     3.28704364
  WF centre and spread    5  ( -0.119986, -0.328922, -2.676016 )     3.80770694
  WF centre and spread    6  ( -0.009522,  0.092815,  7.775922 )     3.71171229
  Sum of centres and spreads ( -0.001595,  2.317310,  1.623358 )    21.41263622
 
     55    -0.127E-03     0.0125010144       21.4126364552       0.44  <-- CONV
        O_D=      0.0139901 O_OD=      0.9423609 O_TOT=     21.4126365 <-- SPRD
 Delta: O_D= -0.2436643E-04 O_OD= -0.1027567E-03 O_TOT= -0.1271232E-03 <-- DLTA
 ------------------------------------------------------------------------------
 Cycle:     56
  WF centre and spread    1  ( -1.726218,  1.055350,  0.645565 )     3.27710028
  WF centre and spread    2  (  0.059565,  0.402778, -2.661427 )     3.77161228
  WF centre and spread    3  (  0.057515, -0.068796, -2.103015 )     3.55753399
  WF centre and spread    4  (  1.737140,  1.164206,  0.642244 )     3.28699534
  WF centre and spread    5  ( -0.120083, -0.328918, -2.676010 )     3.80766388
  WF centre and spread    6  ( -0.009525,  0.092697,  7.776007 )     3.71161535
  Sum of centres and spreads ( -0.001606,  2.317316,  1.623363 )    21.41252113
 
     56    -0.115E-03     0.0090337563       21.4125213564       0.44  <-- CONV
        O_D=      0.0139735 O_OD=      0.9422623 O_TOT=     21.4125214 <-- SPRD
 Delta: O_D= -0.1654448E-04 O_OD= -0.9855429E-04 O_TOT= -0.1150988E-03 <-- DLTA
 ------------------------------------------------------------------------------
 Cycle:     57
  WF centre and spread    1  ( -1.726234,  1.055469,  0.645515 )     3.27726194
  WF centre and spread    2  (  0.059598,  0.402821, -2.661412 )     3.77168934
  WF centre and spread    3  (  0.057609, -0.068827, -2.103039 )     3.55741037
  WF centre and spread    4  (  1.737169,  1.164260,  0.642168 )     3.28692968
  WF centre and spread    5  ( -0.120230, -0.328912, -2.676000 )     3.80762049
  WF centre and spread    6  ( -0.009532,  0.092514,  7.776135 )     3.71150803
  Sum of centres and spreads ( -0.001619,  2.317324,  1.623366 )    21.41241986
 
     57    -0.101E-03     0.0083687499       21.4124200896       0.45  <-- CONV
        O_D=      0.0139628 O_OD=      0.9421718 O_TOT=     21.4124201 <-- SPRD
 Delta: O_D= -0.1075847E-04 O_OD= -0.9050839E-04 O_TOT= -0.1012669E-03 <-- DLTA
 ------------------------------------------------------------------------------
 Cycle:     58
  WF centre and spread    1  ( -1.726261,  1.055643,  0.645443 )     3.27741931
  WF centre and spread    2  (  0.059646,  0.402876, -2.661388 )     3.77175764
  WF centre and spread    3  (  0.057748, -0.068874, -2.103080 )     3.55731297
  WF centre and spread    4  (  1.737213,  1.164340,  0.642060 )     3.28683738
  WF centre and spread    5  ( -0.120437, -0.328902, -2.675984 )     3.80757531
  WF centre and spread    6  ( -0.009544,  0.092248,  7.776317 )     3.71141512
  Sum of centres and spreads ( -0.001634,  2.317332,  1.623368 )    21.41231773
 
     58    -0.102E-03     0.0082583492       21.4123179607       0.46  <-- CONV
        O_D=      0.0139604 O_OD=      0.9420721 O_TOT=     21.4123180 <-- SPRD
 Delta: O_D= -0.2387040E-05 O_OD= -0.9974181E-04 O_TOT= -0.1021288E-03 <-- DLTA
 ------------------------------------------------------------------------------
 Cycle:     59
  WF centre and spread    1  ( -1.726296,  1.055841,  0.645363 )     3.27749747
  WF centre and spread    2  (  0.059699,  0.402930, -2.661359 )     3.77178348
  WF centre and spread    3  (  0.057906, -0.068930, -2.103131 )     3.55728608
  WF centre and spread    4  (  1.737266,  1.164432,  0.641942 )     3.28673534
  WF centre and spread    5  ( -0.120663, -0.328888, -2.675964 )     3.80754200
  WF centre and spread    6  ( -0.009560,  0.091952,  7.776518 )     3.71138801
  Sum of centres and spreads ( -0.001648,  2.317337,  1.623369 )    21.41223238
 
     59    -0.854E-04     0.0077964482       21.4122326084       0.47  <-- CONV
        O_D=      0.0139624 O_OD=      0.9419847 O_TOT=     21.4122326 <-- SPRD
 Delta: O_D=  0.2042280E-05 O_OD= -0.8739458E-04 O_TOT= -0.8535230E-04 <-- DLTA
 ------------------------------------------------------------------------------
 Cycle:     60
  WF centre and spread    1  ( -1.726348,  1.056100,  0.645261 )     3.27748002
  WF centre and spread    2  (  0.059765,  0.402985, -2.661316 )     3.77175561
  WF centre and spread    3  (  0.058110, -0.069004, -2.103203 )     3.55735393
  WF centre and spread    4  (  1.737342,  1.164556,  0.641793 )     3.28660136
  WF centre and spread    5  ( -0.120946, -0.328864, -2.675937 )     3.80750807
  WF centre and spread    6  ( -0.009583,  0.091566,  7.776773 )     3.71144793
  Sum of centres and spreads ( -0.001659,  2.317339,  1.623370 )    21.41214692
 
     60    -0.855E-04     0.0071700231       21.4121471482       0.48  <-- CONV
        O_D=      0.0139757 O_OD=      0.9418860 O_TOT=     21.4121471 <-- SPRD
 Delta: O_D=  0.1325832E-04 O_OD= -0.9871854E-04 O_TOT= -0.8546023E-04 <-- DLTA
 ------------------------------------------------------------------------------
 Cycle:     61
  WF centre and spread    1  ( -1.726356,  1.056126,  0.645252 )     3.27742806
  WF centre and spread    2  (  0.059771,  0.402984, -2.661310 )     3.77172158
  WF centre and spread    3  (  0.058130, -0.069012, -2.103213 )     3.55737642
  WF centre and spread    4  (  1.737352,  1.164570,  0.641780 )     3.28657747
  WF centre and spread    5  ( -0.120968, -0.328860, -2.675933 )     3.80749166
  WF centre and spread    6  ( -0.009587,  0.091528,  7.776795 )     3.71147165
  Sum of centres and spreads ( -0.001657,  2.317337,  1.623370 )    21.41206683
 
     61    -0.801E-04     0.0106628172       21.4120670636       0.48  <-- CONV
        O_D=      0.0139570 O_OD=      0.9418246 O_TOT=     21.4120671 <-- SPRD
 Delta: O_D= -0.1867680E-04 O_OD= -0.6140784E-04 O_TOT= -0.8008464E-04 <-- DLTA
 ------------------------------------------------------------------------------
 Cycle:     62
  WF centre and spread    1  ( -1.726383,  1.056217,  0.645220 )     3.27728015
  WF centre and spread    2  (  0.059792,  0.402985, -2.661291 )     3.77163500
  WF centre and spread    3  (  0.058199, -0.069038, -2.103246 )     3.55748813
  WF centre and spread    4  (  1.737385,  1.164616,  0.641736 )     3.28651873
  WF centre and spread    5  ( -0.121050, -0.328846, -2.675921 )     3.80747645
  WF centre and spread    6  ( -0.009598,  0.091398,  7.776874 )     3.71158576
  Sum of centres and spreads ( -0.001654,  2.317332,  1.623372 )    21.41198422
 
     62    -0.826E-04     0.0069502698       21.4119844475       0.49  <-- CONV
        O_D=      0.0139524 O_OD=      0.9417465 O_TOT=     21.4119844 <-- SPRD
 Delta: O_D= -0.4547914E-05 O_OD= -0.7806815E-04 O_TOT= -0.8261607E-04 <-- DLTA
 ------------------------------------------------------------------------------
 Cycle:     63
  WF centre and spread    1  ( -1.726430,  1.056388,  0.645158 )     3.27704638
  WF centre and spread    2  (  0.059833,  0.402993, -2.661255 )     3.77149797
  WF centre and spread    3  (  0.058330, -0.069088, -2.103305 )     3.55767577
  WF centre and spread    4  (  1.737446,  1.164702,  0.641650 )     3.28641839
  WF centre and spread    5  ( -0.121213, -0.328822, -2.675899 )     3.80746455
  WF centre and spread    6  ( -0.009618,  0.091150,  7.777026 )     3.71178068
  Sum of centres and spreads ( -0.001651,  2.317324,  1.623374 )    21.41188375
 
     63    -0.100E-03     0.0077417888       21.4118839832       0.50  <-- CONV
        O_D=      0.0139494 O_OD=      0.9416491 O_TOT=     21.4118840 <-- SPRD
 Delta: O_D= -0.3055371E-05 O_OD= -0.9740894E-04 O_TOT= -0.1004643E-03 <-- DLTA
 ------------------------------------------------------------------------------
 Cycle:     64
  WF centre and spread    1  ( -1.726486,  1.056601,  0.645079 )     3.27683445
  WF centre and spread    2  (  0.059886,  0.403011, -2.661213 )     3.77136638
  WF centre and spread    3  (  0.058497, -0.069150, -2.103377 )     3.55786830
  WF centre and spread    4  (  1.737519,  1.164809,  0.641541 )     3.28630241
  WF centre and spread    5  ( -0.121423, -0.328795, -2.675871 )     3.80745196
  WF centre and spread    6  ( -0.009642,  0.090842,  7.777216 )     3.71196593
  Sum of centres and spreads ( -0.001649,  2.317318,  1.623375 )    21.41178942
 
     64    -0.943E-04     0.0080764753       21.4117896541       0.51  <-- CONV
        O_D=      0.0139545 O_OD=      0.9415496 O_TOT=     21.4117897 <-- SPRD
 Delta: O_D=  0.5120600E-05 O_OD= -0.9944973E-04 O_TOT= -0.9432913E-04 <-- DLTA
 ------------------------------------------------------------------------------
 Cycle:     65
  WF centre and spread    1  ( -1.726562,  1.056904,  0.644967 )     3.27665810
  WF centre and spread    2  (  0.059964,  0.403045, -2.661156 )     3.77124409
  WF centre and spread    3  (  0.058734, -0.069237, -2.103475 )     3.55806789
  WF centre and spread    4  (  1.737619,  1.164958,  0.641384 )     3.28614953
  WF centre and spread    5  ( -0.121729, -0.328759, -2.675833 )     3.80742979
  WF centre and spread    6  ( -0.009673,  0.090403,  7.777488 )     3.71213251
  Sum of centres and spreads ( -0.001648,  2.317314,  1.623375 )    21.41168191
 
     65    -0.108E-03     0.0080374980       21.4116821365       0.51  <-- CONV
        O_D=      0.0139660 O_OD=      0.9414307 O_TOT=     21.4116821 <-- SPRD
 Delta: O_D=  0.1144525E-04 O_OD= -0.1189628E-03 O_TOT= -0.1075176E-03 <-- DLTA
 ------------------------------------------------------------------------------
 Cycle:     66
  WF centre and spread    1  ( -1.726656,  1.057299,  0.644819 )     3.27656138
  WF centre and spread    2  (  0.060068,  0.403101, -2.661084 )     3.77116272
  WF centre and spread    3  (  0.059043, -0.069348, -2.103598 )     3.55822956
  WF centre and spread    4  (  1.737745,  1.165151,  0.641176 )     3.28596026
  WF centre and spread    5  ( -0.122142, -0.328715, -2.675784 )     3.80738956
  WF centre and spread    6  ( -0.009712,  0.089827,  7.777848 )     3.71225752
  Sum of centres and spreads ( -0.001654,  2.317314,  1.623377 )    21.41156100
 
     66    -0.121E-03     0.0088117180       21.4115612346       0.52  <-- CONV
        O_D=      0.0139798 O_OD=      0.9412959 O_TOT=     21.4115612 <-- SPRD
 Delta: O_D=  0.1384249E-04 O_OD= -0.1347443E-03 O_TOT= -0.1209019E-03 <-- DLTA
 ------------------------------------------------------------------------------
 Cycle:     67
  WF centre and spread    1  ( -1.726660,  1.057326,  0.644807 )     3.27660979
  WF centre and spread    2  (  0.060077,  0.403111, -2.661081 )     3.77118269
  WF centre and spread    3  (  0.059066, -0.069354, -2.103603 )     3.55816028
  WF centre and spread    4  (  1.737752,  1.165162,  0.641159 )     3.28593304
  WF centre and spread    5  ( -0.122180, -0.328713, -2.675781 )     3.80735513
  WF centre and spread    6  ( -0.009712,  0.089784,  7.777878 )     3.71220514
  Sum of centres and spreads ( -0.001658,  2.317317,  1.623379 )    21.41144608
 
     67    -0.115E-03     0.0119004028       21.4114463058       0.53  <-- CONV
        O_D=      0.0139576 O_OD=      0.9412032 O_TOT=     21.4114463 <-- SPRD
 Delta: O_D= -0.2219315E-04 O_OD= -0.9273571E-04 O_TOT= -0.1149289E-03 <-- DLTA
 ------------------------------------------------------------------------------
 Cycle:     68
  WF centre and spread    1  ( -1.726670,  1.057398,  0.644777 )     3.27673541
  WF centre and spread    2  (  0.060100,  0.403138, -2.661072 )     3.77124775
  WF centre and spread    3  (  0.059125, -0.069371, -2.103615 )     3.55804311
  WF centre and spread    4  (  1.737768,  1.165194,  0.641113 )     3.28588907
  WF centre and spread    5  ( -0.122277, -0.328709, -2.675775 )     3.80731113
  WF centre and spread    6  ( -0.009716,  0.089673,  7.777955 )     3.71211601
  Sum of centres and spreads ( -0.001669,  2.317322,  1.623383 )    21.41134249
 
     68    -0.104E-03     0.0085862158       21.4113427205       0.54  <-- CONV
        O_D=      0.0139421 O_OD=      0.9411151 O_TOT=     21.4113427 <-- SPRD
 Delta: O_D= -0.1545969E-04 O_OD= -0.8812561E-04 O_TOT= -0.1035853E-03 <-- DLTA
 ------------------------------------------------------------------------------
 Cycle:     69
  WF centre and spread    1  ( -1.726687,  1.057512,  0.644729 )     3.27689031
  WF centre and spread    2  (  0.060136,  0.403178, -2.661058 )     3.77132382
  WF centre and spread    3  (  0.059220, -0.069401, -2.103639 )     3.55792564
  WF centre and spread    4  (  1.737797,  1.165245,  0.641043 )     3.28582910
  WF centre and spread    5  ( -0.122426, -0.328702, -2.675764 )     3.80726503
  WF centre and spread    6  ( -0.009722,  0.089499,  7.778075 )     3.71201631
  Sum of centres and spreads ( -0.001683,  2.317330,  1.623386 )    21.41125021
 
     69    -0.923E-04     0.0079449249       21.4112504436       0.55  <-- CONV
        O_D=      0.0139323 O_OD=      0.9410326 O_TOT=     21.4112504 <-- SPRD
 Delta: O_D= -0.9806153E-05 O_OD= -0.8247075E-04 O_TOT= -0.9227690E-04 <-- DLTA
 ------------------------------------------------------------------------------
 Cycle:     70
  WF centre and spread    1  ( -1.726716,  1.057679,  0.644660 )     3.27704122
  WF centre and spread    2  (  0.060188,  0.403228, -2.661035 )     3.77139126
  WF centre and spread    3  (  0.059360, -0.069445, -2.103679 )     3.55783165
  WF centre and spread    4  (  1.737841,  1.165322,  0.640944 )     3.28574541
  WF centre and spread    5  ( -0.122638, -0.328691, -2.675747 )     3.80721672
  WF centre and spread    6  ( -0.009732,  0.089245,  7.778245 )     3.71193022
  Sum of centres and spreads ( -0.001697,  2.317337,  1.623388 )    21.41115649
 
     70    -0.937E-04     0.0079100159       21.4111567188       0.55  <-- CONV
        O_D=      0.0139305 O_OD=      0.9409407 O_TOT=     21.4111567 <-- SPRD
 Delta: O_D= -0.1869195E-05 O_OD= -0.9185557E-04 O_TOT= -0.9372476E-04 <-- DLTA
 ------------------------------------------------------------------------------
 Cycle:     71
  WF centre and spread    1  ( -1.726751,  1.057864,  0.644585 )     3.27711326
  WF centre and spread    2  (  0.060243,  0.403276, -2.661008 )     3.77141567
[...]
 Cycle:    481
  WF centre and spread    1  ( -1.736152,  1.087182,  0.634562 )     3.27353538
  WF centre and spread    2  (  0.088694,  0.401375, -2.653768 )     3.76757730
  WF centre and spread    3  (  0.111419, -0.080649, -2.122756 )     3.57133028
  WF centre and spread    4  (  1.747985,  1.176143,  0.630453 )     3.27757034
  WF centre and spread    5  ( -0.204892, -0.316274, -2.664186 )     3.79078104
  WF centre and spread    6  ( -0.010646,  0.049217,  7.799177 )     3.71637550
  Sum of centres and spreads ( -0.003592,  2.316995,  1.623481 )    21.39716983
 
    481    -0.137E-04     0.0043736708       21.3971700623       3.83  <-- CONV
        O_D=      0.0136234 O_OD=      0.9272611 O_TOT=     21.3971701 <-- SPRD
 Delta: O_D= -0.3103876E-05 O_OD= -0.1058932E-04 O_TOT= -0.1369320E-04 <-- DLTA
 ------------------------------------------------------------------------------
 Cycle:    482
  WF centre and spread    1  ( -1.736159,  1.087195,  0.634560 )     3.27349679
  WF centre and spread    2  (  0.088729,  0.401360, -2.653758 )     3.76756224
  WF centre and spread    3  (  0.111480, -0.080661, -2.122787 )     3.57137861
  WF centre and spread    4  (  1.747991,  1.176144,  0.630452 )     3.27757065
  WF centre and spread    5  ( -0.204985, -0.316250, -2.664166 )     3.79076966
  WF centre and spread    6  ( -0.010645,  0.049205,  7.799181 )     3.71637768
  Sum of centres and spreads ( -0.003590,  2.316993,  1.623482 )    21.39715564
 
    482    -0.142E-04     0.0029056600       21.3971558730       3.84  <-- CONV
        O_D=      0.0136221 O_OD=      0.9272483 O_TOT=     21.3971559 <-- SPRD
 Delta: O_D= -0.1368755E-05 O_OD= -0.1282050E-04 O_TOT= -0.1418926E-04 <-- DLTA
 ------------------------------------------------------------------------------
 Cycle:    483
  WF centre and spread    1  ( -1.736172,  1.087221,  0.634555 )     3.27343612
  WF centre and spread    2  (  0.088796,  0.401335, -2.653740 )     3.76753704
  WF centre and spread    3  (  0.111596, -0.080686, -2.122843 )     3.57145819
  WF centre and spread    4  (  1.748001,  1.176144,  0.630451 )     3.27757102
  WF centre and spread    5  ( -0.205166, -0.316207, -2.664129 )     3.79074776
  WF centre and spread    6  ( -0.010644,  0.049183,  7.799189 )     3.71638825
  Sum of centres and spreads ( -0.003589,  2.316989,  1.623482 )    21.39713839
 
    483    -0.173E-04     0.0031941819       21.3971386188       3.84  <-- CONV
        O_D=      0.0136225 O_OD=      0.9272306 O_TOT=     21.3971386 <-- SPRD
 Delta: O_D=  0.4800531E-06 O_OD= -0.1773422E-04 O_TOT= -0.1725417E-04 <-- DLTA
 ------------------------------------------------------------------------------
 Cycle:    484
  WF centre and spread    1  ( -1.736185,  1.087253,  0.634549 )     3.27338079
  WF centre and spread    2  (  0.088883,  0.401306, -2.653718 )     3.76751266
  WF centre and spread    3  (  0.111744, -0.080717, -2.122913 )     3.57154469
  WF centre and spread    4  (  1.748012,  1.176143,  0.630448 )     3.27757230
  WF centre and spread    5  ( -0.205400, -0.316155, -2.664084 )     3.79071225
  WF centre and spread    6  ( -0.010642,  0.049155,  7.799199 )     3.71639911
  Sum of centres and spreads ( -0.003589,  2.316985,  1.623482 )    21.39712181
 
    484    -0.166E-04     0.0033532260       21.3971220403       3.85  <-- CONV
        O_D=      0.0136240 O_OD=      0.9272125 O_TOT=     21.3971220 <-- SPRD
 Delta: O_D=  0.1462374E-05 O_OD= -0.1804088E-04 O_TOT= -0.1657851E-04 <-- DLTA
 ------------------------------------------------------------------------------
 Cycle:    485
  WF centre and spread    1  ( -1.736201,  1.087297,  0.634540 )     3.27333788
  WF centre and spread    2  (  0.089002,  0.401271, -2.653688 )     3.76749112
  WF centre and spread    3  (  0.111950, -0.080760, -2.123007 )     3.57164259
  WF centre and spread    4  (  1.748024,  1.176141,  0.630443 )     3.27757502
  WF centre and spread    5  ( -0.205727, -0.316084, -2.664021 )     3.79064950
  WF centre and spread    6  ( -0.010639,  0.049116,  7.799214 )     3.71640730
  Sum of centres and spreads ( -0.003591,  2.316980,  1.623481 )    21.39710342
 
    485    -0.184E-04     0.0033601495       21.3971036513       3.86  <-- CONV
        O_D=      0.0136274 O_OD=      0.9271907 O_TOT=     21.3971037 <-- SPRD
 Delta: O_D=  0.3398725E-05 O_OD= -0.2178775E-04 O_TOT= -0.1838903E-04 <-- DLTA
 ------------------------------------------------------------------------------
 Cycle:    486
  WF centre and spread    1  ( -1.736219,  1.087351,  0.634527 )     3.27332179
  WF centre and spread    2  (  0.089156,  0.401231, -2.653651 )     3.76748040
  WF centre and spread    3  (  0.112213, -0.080814, -2.123125 )     3.57173582
  WF centre and spread    4  (  1.748036,  1.176138,  0.630436 )     3.27757720
  WF centre and spread    5  ( -0.206149, -0.315996, -2.663941 )     3.79055599
  WF centre and spread    6  ( -0.010634,  0.049067,  7.799234 )     3.71641214
  Sum of centres and spreads ( -0.003597,  2.316976,  1.623480 )    21.39708334
 
    486    -0.201E-04     0.0036071800       21.3970835679       3.87  <-- CONV
        O_D=      0.0136314 O_OD=      0.9271666 O_TOT=     21.3970836 <-- SPRD
 Delta: O_D=  0.4044122E-05 O_OD= -0.2412753E-04 O_TOT= -0.2008341E-04 <-- DLTA
 ------------------------------------------------------------------------------
 Cycle:    487
  WF centre and spread    1  ( -1.736219,  1.087355,  0.634526 )     3.27333883
  WF centre and spread    2  (  0.089168,  0.401230, -2.653649 )     3.76748685
  WF centre and spread    3  (  0.112234, -0.080818, -2.123132 )     3.57171967
  WF centre and spread    4  (  1.748035,  1.176137,  0.630435 )     3.27757276
  WF centre and spread    5  ( -0.206184, -0.315991, -2.663935 )     3.79053831
  WF centre and spread    6  ( -0.010633,  0.049063,  7.799236 )     3.71640699
  Sum of centres and spreads ( -0.003599,  2.316976,  1.623480 )    21.39706342
 
    487    -0.199E-04     0.0049461021       21.3970636508       3.87  <-- CONV
        O_D=      0.0136269 O_OD=      0.9271513 O_TOT=     21.3970637 <-- SPRD
 Delta: O_D= -0.4561825E-05 O_OD= -0.1535527E-04 O_TOT= -0.1991709E-04 <-- DLTA
 ------------------------------------------------------------------------------
 Cycle:    488
  WF centre and spread    1  ( -1.736219,  1.087364,  0.634523 )     3.27338185
  WF centre and spread    2  (  0.089200,  0.401229, -2.653643 )     3.76750405
  WF centre and spread    3  (  0.112287, -0.080828, -2.123152 )     3.57169322
  WF centre and spread    4  (  1.748034,  1.176135,  0.630432 )     3.27756781
  WF centre and spread    5  ( -0.206275, -0.315976, -2.663920 )     3.79049901
  WF centre and spread    6  ( -0.010631,  0.049054,  7.799241 )     3.71639924
  Sum of centres and spreads ( -0.003604,  2.316977,  1.623480 )    21.39704519
 
    488    -0.182E-04     0.0035959664       21.3970454179       3.88  <-- CONV
        O_D=      0.0136231 O_OD=      0.9271368 O_TOT=     21.3970454 <-- SPRD
 Delta: O_D= -0.3787774E-05 O_OD= -0.1444507E-04 O_TOT= -0.1823285E-04 <-- DLTA
 ------------------------------------------------------------------------------
 Cycle:    489
  WF centre and spread    1  ( -1.736219,  1.087380,  0.634519 )     3.27343624
  WF centre and spread    2  (  0.089250,  0.401225, -2.653634 )     3.76752417
  WF centre and spread    3  (  0.112372, -0.080844, -2.123185 )     3.57167272
  WF centre and spread    4  (  1.748032,  1.176132,  0.630428 )     3.27756423
  WF centre and spread    5  ( -0.206418, -0.315952, -2.663896 )     3.79044200
  WF centre and spread    6  ( -0.010629,  0.049038,  7.799248 )     3.71638942
  Sum of centres and spreads ( -0.003612,  2.316978,  1.623479 )    21.39702878
 
    489    -0.164E-04     0.0033442846       21.3970290166       3.89  <-- CONV
        O_D=      0.0136215 O_OD=      0.9271220 O_TOT=     21.3970290 <-- SPRD
 Delta: O_D= -0.1614392E-05 O_OD= -0.1478694E-04 O_TOT= -0.1640133E-04 <-- DLTA
 ------------------------------------------------------------------------------
 Cycle:    490
  WF centre and spread    1  ( -1.736221,  1.087403,  0.634512 )     3.27349517
  WF centre and spread    2  (  0.089325,  0.401216, -2.653620 )     3.76754497
  WF centre and spread    3  (  0.112500, -0.080869, -2.123236 )     3.57166361
  WF centre and spread    4  (  1.748031,  1.176128,  0.630423 )     3.27756123
  WF centre and spread    5  ( -0.206630, -0.315916, -2.663860 )     3.79036678
  WF centre and spread    6  ( -0.010625,  0.049016,  7.799260 )     3.71637997
  Sum of centres and spreads ( -0.003621,  2.316978,  1.623478 )    21.39701172
 
    490    -0.171E-04     0.0033349269       21.3970119535       3.90  <-- CONV
        O_D=      0.0136208 O_OD=      0.9271056 O_TOT=     21.3970120 <-- SPRD
 Delta: O_D= -0.6527508E-06 O_OD= -0.1641037E-04 O_TOT= -0.1706312E-04 <-- DLTA
 ------------------------------------------------------------------------------
 Cycle:    491
  WF centre and spread    1  ( -1.736226,  1.087430,  0.634505 )     3.27353185
  WF centre and spread    2  (  0.089406,  0.401204, -2.653603 )     3.76755656
  WF centre and spread    3  (  0.112639, -0.080897, -2.123294 )     3.57167432
  WF centre and spread    4  (  1.748032,  1.176124,  0.630417 )     3.27755855
  WF centre and spread    5  ( -0.206859, -0.315874, -2.663820 )     3.79029776
  WF centre and spread    6  ( -0.010621,  0.048991,  7.799272 )     3.71637865
  Sum of centres and spreads ( -0.003629,  2.316977,  1.623477 )    21.39699770
 
    491    -0.140E-04     0.0031763506       21.3969979327       3.90  <-- CONV
        O_D=      0.0136219 O_OD=      0.9270906 O_TOT=     21.3969979 <-- SPRD
 Delta: O_D=  0.1037640E-05 O_OD= -0.1505845E-04 O_TOT= -0.1402081E-04 <-- DLTA
 ------------------------------------------------------------------------------
 Cycle:    492
  WF centre and spread    1  ( -1.736234,  1.087464,  0.634497 )     3.27354331
  WF centre and spread    2  (  0.089508,  0.401182, -2.653580 )     3.76755912
  WF centre and spread    3  (  0.112814, -0.080933, -2.123370 )     3.57171772
  WF centre and spread    4  (  1.748037,  1.176120,  0.630412 )     3.27755686
  WF centre and spread    5  ( -0.207143, -0.315818, -2.663768 )     3.79022509
  WF centre and spread    6  ( -0.010618,  0.048960,  7.799286 )     3.71638208
  Sum of centres and spreads ( -0.003636,  2.316975,  1.623477 )    21.39698417
 
    492    -0.135E-04     0.0028865744       21.3969844032       3.91  <-- CONV
        O_D=      0.0136245 O_OD=      0.9270743 O_TOT=     21.3969844 <-- SPRD
 Delta: O_D=  0.2690009E-05 O_OD= -0.1621949E-04 O_TOT= -0.1352948E-04 <-- DLTA
 ------------------------------------------------------------------------------
 Cycle:    493
  WF centre and spread    1  ( -1.736237,  1.087468,  0.634496 )     3.27352999
  WF centre and spread    2  (  0.089518,  0.401177, -2.653577 )     3.76755363
  WF centre and spread    3  (  0.112831, -0.080937, -2.123379 )     3.57173166
  WF centre and spread    4  (  1.748039,  1.176120,  0.630412 )     3.27755606
  WF centre and spread    5  ( -0.207170, -0.315811, -2.663762 )     3.79021987
  WF centre and spread    6  ( -0.010618,  0.048957,  7.799286 )     3.71637952
  Sum of centres and spreads ( -0.003635,  2.316974,  1.623477 )    21.39697073
 
    493    -0.134E-04     0.0043323537       21.3969709644       3.92  <-- CONV
        O_D=      0.0136215 O_OD=      0.9270639 O_TOT=     21.3969710 <-- SPRD
 Delta: O_D= -0.3039203E-05 O_OD= -0.1039965E-04 O_TOT= -0.1343885E-04 <-- DLTA
 ------------------------------------------------------------------------------
 Cycle:    494
  WF centre and spread    1  ( -1.736244,  1.087481,  0.634494 )     3.27349186
  WF centre and spread    2  (  0.089553,  0.401162, -2.653566 )     3.76753909
  WF centre and spread    3  (  0.112891, -0.080950, -2.123409 )     3.57177973
  WF centre and spread    4  (  1.748045,  1.176120,  0.630411 )     3.27755643
  WF centre and spread    5  ( -0.207262, -0.315788, -2.663742 )     3.79020835
  WF centre and spread    6  ( -0.010617,  0.048946,  7.799290 )     3.71638133
  Sum of centres and spreads ( -0.003634,  2.316972,  1.623477 )    21.39695680
 
    494    -0.139E-04     0.0028784799       21.3969570345       3.93  <-- CONV
        O_D=      0.0136202 O_OD=      0.9270514 O_TOT=     21.3969570 <-- SPRD
 Delta: O_D= -0.1352365E-05 O_OD= -0.1257754E-04 O_TOT= -0.1392990E-04 <-- DLTA
 ------------------------------------------------------------------------------
 Cycle:    495
  WF centre and spread    1  ( -1.736256,  1.087506,  0.634490 )     3.27343199
  WF centre and spread    2  (  0.089619,  0.401137, -2.653548 )     3.76751475
  WF centre and spread    3  (  0.113006, -0.080975, -2.123466 )     3.57185884
  WF centre and spread    4  (  1.748055,  1.176119,  0.630410 )     3.27755688
  WF centre and spread    5  ( -0.207441, -0.315745, -2.663705 )     3.79018619
  WF centre and spread    6  ( -0.010616,  0.048925,  7.799297 )     3.71639124
  Sum of centres and spreads ( -0.003633,  2.316968,  1.623477 )    21.39693988
 
    495    -0.169E-04     0.0031649233       21.3969401140       3.94  <-- CONV
        O_D=      0.0136206 O_OD=      0.9270340 O_TOT=     21.3969401 <-- SPRD
 Delta: O_D=  0.4876718E-06 O_OD= -0.1740813E-04 O_TOT= -0.1692046E-04 <-- DLTA
 ------------------------------------------------------------------------------
 Cycle:    496
  WF centre and spread    1  ( -1.736269,  1.087537,  0.634484 )     3.27337748
  WF centre and spread    2  (  0.089703,  0.401108, -2.653525 )     3.76749119
  WF centre and spread    3  (  0.113153, -0.081006, -2.123536 )     3.57194489
  WF centre and spread    4  (  1.748065,  1.176118,  0.630408 )     3.27755825
  WF centre and spread    5  ( -0.207671, -0.315692, -2.663659 )     3.79015044
  WF centre and spread    6  ( -0.010614,  0.048899,  7.799306 )     3.71640139
  Sum of centres and spreads ( -0.003632,  2.316964,  1.623477 )    21.39692364
 
    496    -0.162E-04     0.0033184375       21.3969238773       3.94  <-- CONV
        O_D=      0.0136221 O_OD=      0.9270163 O_TOT=     21.3969239 <-- SPRD
 Delta: O_D=  0.1427924E-05 O_OD= -0.1766457E-04 O_TOT= -0.1623664E-04 <-- DLTA
 ------------------------------------------------------------------------------
 Cycle:    497
  WF centre and spread    1  ( -1.736284,  1.087578,  0.634476 )     3.27333522
  WF centre and spread    2  (  0.089821,  0.401073, -2.653496 )     3.76747031
  WF centre and spread    3  (  0.113357, -0.081049, -2.123630 )     3.57204257
  WF centre and spread    4  (  1.748076,  1.176115,  0.630403 )     3.27756111
  WF centre and spread    5  ( -0.207994, -0.315621, -2.663596 )     3.79008748
  WF centre and spread    6  ( -0.010610,  0.048864,  7.799320 )     3.71640894
  Sum of centres and spreads ( -0.003634,  2.316959,  1.623477 )    21.39690563
 
    497    -0.180E-04     0.0033248892       21.3969058671       3.95  <-- CONV
        O_D=      0.0136254 O_OD=      0.9269949 O_TOT=     21.3969059 <-- SPRD
 Delta: O_D=  0.3355006E-05 O_OD= -0.2136524E-04 O_TOT= -0.1801024E-04 <-- DLTA
 ------------------------------------------------------------------------------
 Cycle:    498
  WF centre and spread    1  ( -1.736300,  1.087630,  0.634464 )     3.27331943
  WF centre and spread    2  (  0.089972,  0.401034, -2.653459 )     3.76745984
  WF centre and spread    3  (  0.113618, -0.081104, -2.123749 )     3.57213593
  WF centre and spread    4  (  1.748087,  1.176110,  0.630397 )     3.27756351
  WF centre and spread    5  ( -0.208411, -0.315534, -2.663516 )     3.78999395
  WF centre and spread    6  ( -0.010606,  0.048819,  7.799338 )     3.71641330
  Sum of centres and spreads ( -0.003640,  2.316955,  1.623475 )    21.39688597
 
    498    -0.197E-04     0.0035690333       21.3968862026       3.96  <-- CONV
        O_D=      0.0136294 O_OD=      0.9269713 O_TOT=     21.3968862 <-- SPRD
 Delta: O_D=  0.3986019E-05 O_OD= -0.2365057E-04 O_TOT= -0.1966455E-04 <-- DLTA
 ------------------------------------------------------------------------------
 Cycle:    499
  WF centre and spread    1  ( -1.736300,  1.087633,  0.634463 )     3.27333628
  WF centre and spread    2  (  0.089984,  0.401033, -2.653457 )     3.76746606
  WF centre and spread    3  (  0.113638, -0.081107, -2.123756 )     3.57212011
  WF centre and spread    4  (  1.748086,  1.176109,  0.630396 )     3.27755919
  WF centre and spread    5  ( -0.208445, -0.315528, -2.663511 )     3.78997647
  WF centre and spread    6  ( -0.010605,  0.048815,  7.799340 )     3.71640836
  Sum of centres and spreads ( -0.003642,  2.316955,  1.623476 )    21.39686647
 
    499    -0.195E-04     0.0048934889       21.3968667045       3.97  <-- CONV
        O_D=      0.0136249 O_OD=      0.9269562 O_TOT=     21.3968667 <-- SPRD
 Delta: O_D= -0.4471567E-05 O_OD= -0.1502650E-04 O_TOT= -0.1949807E-04 <-- DLTA
 ------------------------------------------------------------------------------
 Cycle:    500
  WF centre and spread    1  ( -1.736300,  1.087643,  0.634460 )     3.27337879
  WF centre and spread    2  (  0.090015,  0.401031, -2.653451 )     3.76748263
  WF centre and spread    3  (  0.113691, -0.081117, -2.123777 )     3.57209429
  WF centre and spread    4  (  1.748084,  1.176107,  0.630393 )     3.27755442
  WF centre and spread    5  ( -0.208535, -0.315513, -2.663495 )     3.78993750
  WF centre and spread    6  ( -0.010603,  0.048806,  7.799345 )     3.71640100
  Sum of centres and spreads ( -0.003648,  2.316956,  1.623476 )    21.39684862
 
    500    -0.179E-04     0.0035585227       21.3968488532       3.97  <-- CONV
        O_D=      0.0136212 O_OD=      0.9269421 O_TOT=     21.3968489 <-- SPRD
 Delta: O_D= -0.3716414E-05 O_OD= -0.1413486E-04 O_TOT= -0.1785127E-04 <-- DLTA
 ------------------------------------------------------------------------------

 Writing checkpoint file mp-1228891.chk... done

 Final State
  WF centre and spread    1  ( -1.736300,  1.087643,  0.634460 )     3.27337879
  WF centre and spread    2  (  0.090015,  0.401031, -2.653451 )     3.76748263
  WF centre and spread    3  (  0.113691, -0.081117, -2.123777 )     3.57209429
  WF centre and spread    4  (  1.748084,  1.176107,  0.630393 )     3.27755442
  WF centre and spread    5  ( -0.208535, -0.315513, -2.663495 )     3.78993750
  WF centre and spread    6  ( -0.010603,  0.048806,  7.799345 )     3.71640100
  Sum of centres and spreads ( -0.003648,  2.316956,  1.623476 )    21.39684862
 
         Spreads (Ang^2)       Omega I      =    20.456285512
        ================       Omega D      =     0.013621227
                               Omega OD     =     0.926942115
    Final Spread (Ang^2)       Omega Total  =    21.396848853
 ------------------------------------------------------------------------------
 Time for wannierise            3.973 (sec)

 Writing checkpoint file mp-1228891.chk... done

 Time for plotting              0.000 (sec)
 Total Execution Time           4.984 (sec)

 *===========================================================================*
 |                             TIMING INFORMATION                            |
 *===========================================================================*
 |    Tag                                                Ncalls      Time (s)|
 |---------------------------------------------------------------------------|
 |kmesh: get                                        :         1         0.662|
 |overlap: allocate                                 :         1         0.003|
 |overlap: read                                     :         1         0.272|
 |wann: main                                        :         1         3.973|
 |plot: main                                        :         1         0.000|
 *---------------------------------------------------------------------------*
 
 All done: wannier90 exiting
