
     Program PWSCF v.7.1 starts on  8Apr2024 at 15:14:40 

     This program is part of the open-source Quantum ESPRESSO suite
     for quantum simulation of materials; please cite
         "P. Giannozzi et al., J. Phys.:Condens. Matter 21 395502 (2009);
         "P. Giannozzi et al., J. Phys.:Condens. Matter 29 465901 (2017);
         "P. Giannozzi et al., J. Chem. Phys. 152 154105 (2020);
          URL http://www.quantum-espresso.org", 
     in publications or presentations arising from this work. More details at
     http://www.quantum-espresso.org/quote

     Parallel version (MPI), running on    16 processors

     MPI processes distributed on     1 nodes
     248057 MiB available memory on the printing compute node when the environment starts
 
     Reading input from pw_mp-1228891_nscf_k3000_E65.in
Warning: card &IONS ignored
Warning: card / ignored
Warning: card &CELL ignored
Warning: card / ignored

     Current dimensions of program PWSCF are:
     Max number of different atomic species (ntypx) = 10
     Max number of k-points (npk) =  40000
     Max angular momentum in pseudopotentials (lmaxx) =  4

     Atomic positions and unit cell read from directory:
     out/mp-1228891.save/
     Atomic positions from file used, from input discarded
 
 
     R & G space division:  proc/nbgrp/npool/nimage =      16
     Subspace diagonalization in iterative solution of the eigenvalue problem:
     a serial algorithm will be used

 
     Parallelization info
     --------------------
     sticks:   dense  smooth     PW     G-vecs:    dense   smooth      PW
     Min         123     123     37                 2735     2735     465
     Max         124     124     38                 2737     2737     468
     Sum        1983    1983    605                43785    43785    7469
 
     Using Slab Decomposition
 


     bravais-lattice index     =            5
     lattice parameter (alat)  =      13.1213  a.u.
     unit-cell volume          =     615.5599 (a.u.)^3
     number of atoms/cell      =            4
     number of atomic types    =            3
     number of electrons       =        34.00
     number of Kohn-Sham states=           34
     kinetic-energy cutoff     =      65.0000  Ry
     charge density cutoff     =     260.0000  Ry
     Exchange-correlation= PBE
                           (   1   4   3   4   0   0   0)

     celldm(1)=  13.121299  celldm(2)=   0.000000  celldm(3)=   0.000000
     celldm(4)=   0.833126  celldm(5)=   0.000000  celldm(6)=   0.000000

     crystal axes: (cart. coord. in units of alat)
               a(1) = (   0.288855  -0.166770   0.942736 )  
               a(2) = (   0.000000   0.333541   0.942736 )  
               a(3) = (  -0.288855  -0.166770   0.942736 )  

     reciprocal axes: (cart. coord. in units 2 pi/alat)
               b(1) = (  1.730973 -0.999378  0.353581 )  
               b(2) = (  0.000000  1.998756  0.353581 )  
               b(3) = ( -1.730973 -0.999378  0.353581 )  


     PseudoPot. # 1 for Al read from file:
     /usr/scratch4/magr4826/Promotion/Python/Code/devEb/pseudo/SG15/Al.upf
     MD5 check sum: 2d9e7bc02555220d62fad08c3c4858e7
     Pseudo is Norm-conserving, Zval = 11.0
     Generated using ONCVPSP code by D. R. Hamann
     Using radial grid of  602 points,  4 beta functions with: 
                l(1) =   0
                l(2) =   0
                l(3) =   1
                l(4) =   1

     PseudoPot. # 2 for As read from file:
     /usr/scratch4/magr4826/Promotion/Python/Code/devEb/pseudo/SG15/As.upf
     MD5 check sum: a2ff92a4799c87c945fff9e6739df4dd
     Pseudo is Norm-conserving, Zval =  5.0
     Generated using ONCVPSP code by D. R. Hamann
     Using radial grid of  602 points,  6 beta functions with: 
                l(1) =   0
                l(2) =   0
                l(3) =   1
                l(4) =   1
                l(5) =   2
                l(6) =   2

     PseudoPot. # 3 for Ga read from file:
     /usr/scratch4/magr4826/Promotion/Python/Code/devEb/pseudo/SG15/Ga.upf
     MD5 check sum: 9961a622ff199abf6dfec9a0a10b8555
     Pseudo is Norm-conserving, Zval = 13.0
     Generated using ONCVPSP code by D. R. Hamann
     Using radial grid of  602 points,  6 beta functions with: 
                l(1) =   0
                l(2) =   0
                l(3) =   1
                l(4) =   1
                l(5) =   2
                l(6) =   2

     atomic species   valence    mass     pseudopotential
        Al            11.00    26.98150     Al( 1.00)
        As             5.00    74.92160     As( 1.00)
        Ga            13.00    69.72300     Ga( 1.00)

     No symmetry found



   Cartesian axes

     site n.     atom                  positions (alat units)
         1           Al  tau(   1) = (   0.0000000  -0.0000000   0.0006819  )
         2           Ga  tau(   2) = (   0.0000000   0.0000000   1.4137388  )
         3           As  tau(   3) = (   0.0000000  -0.0000000   2.4751217  )
         4           As  tau(   4) = (   0.0000000   0.0000000   1.0598170  )

     number of k points=  1000  Gaussian smearing, width (Ry)=  0.0005

     Number of k-points >= 100: set verbosity='high' to print them.

     Dense  grid:    43785 G-vectors     FFT dimensions: (  72,  72,  72)

     Estimated max dynamical RAM per process >     183.90 MB

     Estimated total dynamical RAM >       2.87 GB

     The potential is recalculated from file :
     out/mp-1228891.save/charge-density

     Starting wfcs are random

     Band Structure Calculation
     Davidson diagonalization with overlap

     ethr =  5.00E-06,  avg # of iterations = 23.3

     total cpu time spent up to now is      164.5 secs

     End of band structure calculation

     Number of k-points >= 100: set verbosity='high' to print the bands.

     the Fermi energy is     6.9331 ev
     (compare with:     6.9328 eV, computed in scf)

     Writing all to output data dir out/mp-1228891.save/
 
     init_run     :      0.15s CPU      0.19s WALL (       1 calls)
     electrons    :    155.07s CPU    163.85s WALL (       1 calls)

     Called by init_run:
     wfcinit      :      0.00s CPU      0.00s WALL (       1 calls)
     potinit      :      0.02s CPU      0.04s WALL (       1 calls)
     hinit0       :      0.08s CPU      0.10s WALL (       1 calls)

     Called by electrons:
     c_bands      :    155.07s CPU    163.85s WALL (       1 calls)
     v_of_rho     :      0.02s CPU      0.03s WALL (       1 calls)

     Called by c_bands:
     init_us_2    :      0.07s CPU      0.07s WALL (    1000 calls)
     init_us_2:cp :      0.07s CPU      0.07s WALL (    1000 calls)
     cegterg      :    146.10s CPU    148.16s WALL (    1761 calls)

     Called by *egterg:
     cdiaghg      :     22.08s CPU     22.36s WALL (   24295 calls)
     h_psi        :    122.34s CPU    124.18s WALL (   26056 calls)
     g_psi        :      0.37s CPU      0.37s WALL (   23295 calls)

     Called by h_psi:
     h_psi:calbec :      2.36s CPU      2.40s WALL (   26056 calls)
     vloc_psi     :    118.18s CPU    119.94s WALL (   26056 calls)
     add_vuspsi   :      1.57s CPU      1.60s WALL (   26056 calls)

     General routines
     calbec       :      2.33s CPU      2.38s WALL (   26056 calls)
     fft          :      0.01s CPU      0.03s WALL (      10 calls)
     fftw         :    106.42s CPU    108.00s WALL ( 1117952 calls)
 
     Parallel routines
 
     PWSCF        :   2m40.66s CPU   3m 6.78s WALL

 
   This run was terminated on:  15:17:46   8Apr2024            

=------------------------------------------------------------------------------=
   JOB DONE.
=------------------------------------------------------------------------------=
