 
             +---------------------------------------------------+
             |                                                   |
             |                   WANNIER90                       |
             |                                                   |
             +---------------------------------------------------+
             |                                                   |
             |        Welcome to the Maximally-Localized         |
             |        Generalized Wannier Functions code         |
             |            http://www.wannier.org                 |
             |                                                   |
             |                                                   |
             |  Wannier90 Developer Group:                       |
             |    Giovanni Pizzi    (EPFL)                       |
             |    Valerio Vitale    (Cambridge)                  |
             |    David Vanderbilt  (Rutgers University)         |
             |    Nicola Marzari    (EPFL)                       |
             |    Ivo Souza         (Universidad del Pais Vasco) |
             |    Arash A. Mostofi  (Imperial College London)    |
             |    Jonathan R. Yates (University of Oxford)       |
             |                                                   |
             |  For the full list of Wannier90 3.x authors,      |
             |  please check the code documentation and the      |
             |  README on the GitHub page of the code            |
             |                                                   |
             |                                                   |
             |  Please cite                                      |
             |                                                   |
             |  [ref] "Wannier90 as a community code:            |
             |        new features and applications",            |
             |        G. Pizzi et al., J. Phys. Cond. Matt. 32,  |
             |        165902 (2020).                             |
             |        http://doi.org/10.1088/1361-648X/ab51ff    |
             |                                                   |
             |  in any publications arising from the use of      |
             |  this code. For the method please cite            |
             |                                                   |
             |  [ref] "Maximally Localized Generalised Wannier   |
             |         Functions for Composite Energy Bands"     |
             |         N. Marzari and D. Vanderbilt              |
             |         Phys. Rev. B 56 12847 (1997)              |
             |                                                   |
             |  [ref] "Maximally Localized Wannier Functions     |
             |         for Entangled Energy Bands"               |
             |         I. Souza, N. Marzari and D. Vanderbilt    |
             |         Phys. Rev. B 65 035109 (2001)             |
             |                                                   |
             |                                                   |
             | Copyright (c) 1996-2020                           |
             |        The Wannier90 Developer Group and          |
             |        individual contributors                    |
             |                                                   |
             |      Release: 3.1.0        5th March    2020      |
             |                                                   |
             | This program is free software; you can            |
             | redistribute it and/or modify it under the terms  |
             | of the GNU General Public License as published by |
             | the Free Software Foundation; either version 2 of |
             | the License, or (at your option) any later version|
             |                                                   |
             | This program is distributed in the hope that it   |
             | will be useful, but WITHOUT ANY WARRANTY; without |
             | even the implied warranty of MERCHANTABILITY or   |
             | FITNESS FOR A PARTICULAR PURPOSE. See the GNU     |
             | General Public License for more details.          |
             |                                                   |
             | You should have received a copy of the GNU General|
             | Public License along with this program; if not,   |
             | write to the Free Software Foundation, Inc.,      |
             | 675 Mass Ave, Cambridge, MA 02139, USA.           |
             |                                                   |
             +---------------------------------------------------+
             |    Execution started on  3Jan2024 at 14:28:08     |
             +---------------------------------------------------+
 
 ******************************************************************************
 * -> Using CODATA 2006 constant values                                       *
 *    (http://physics.nist.gov/cuu/Constants/index.html)                      *
 * -> Using Bohr value from CODATA                                            *
 ******************************************************************************
 

 Running in parallel on   8 CPUs

 
                                    ------
                                    SYSTEM
                                    ------
 
                              Lattice Vectors (Ang)
                    a_1    -2.721851   0.000000   2.721851
                    a_2     0.000000   2.721851   2.721851
                    a_3    -2.721851   2.721851   0.000000
 
                   Unit Cell Volume:      40.32952  (Ang^3)
 
                        Reciprocal-Space Vectors (Ang^-1)
                    b_1    -1.154212  -1.154212   1.154212
                    b_2     1.154212   1.154212   1.154212
                    b_3    -1.154212   1.154212  -1.154212
  
 *----------------------------------------------------------------------------*
 |   Site       Fractional Coordinate          Cartesian Coordinate (Ang)     |
 +----------------------------------------------------------------------------+
 | Si   1   0.25000   0.25000   0.25000   |   -1.36093   1.36093   1.36093    |
 | Si   2   0.50000   0.50000   0.50000   |   -2.72185   2.72185   2.72185    |
 *----------------------------------------------------------------------------*
                                ------------
                                K-POINT GRID
                                ------------
  
             Grid size = 12 x 12 x 12      Total points = 1728
  
  
 *---------------------------------- MAIN ------------------------------------*
 |  Number of Wannier Functions               :                 4             |
 |  Number of Objective Wannier Functions     :                 4             |
 |  Number of input Bloch states              :                 4             |
 |  Output verbosity (1=low, 5=high)          :                 1             |
 |  Timing Level (1=low, 5=high)              :                 1             |
 |  Optimisation (0=memory, 3=speed)          :                 3             |
 |  Length Unit                               :               Ang             |
 |  Post-processing setup (write *.nnkp)      :                 F             |
 |  Using Gamma-only branch of algorithms     :                 F             |
 *----------------------------------------------------------------------------*
 *------------------------------- WANNIERISE ---------------------------------*
 |  Total number of iterations                :               500             |
 |  Number of CG steps before reset           :                 5             |
 |  Trial step length for line search         :             2.000             |
 |  Convergence tolerence                     :         0.100E-09             |
 |  Convergence window                        :                -1             |
 |  Iterations between writing output         :                 1             |
 |  Iterations between backing up to disk     :               100             |
 |  Write r^2_nm to file                      :                 F             |
 |  Write xyz WF centres to file              :                 F             |
 |  Write on-site energies <0n|H|0n> to file  :                 F             |
 |  Use guiding centre to control phases      :                 F             |
 |  Use phases for initial projections        :                 F             |
 *----------------------------------------------------------------------------*
 Time to read parameters        0.101 (sec)

 *---------------------------------- K-MESH ----------------------------------*
 +----------------------------------------------------------------------------+
 |                    Distance to Nearest-Neighbour Shells                    |
 |                    ------------------------------------                    |
 |          Shell             Distance (Ang^-1)          Multiplicity         |
 |          -----             -----------------          ------------         |
 |             1                   0.166596                      8            |
 |             2                   0.192369                      6            |
 |             3                   0.272050                     12            |
 |             4                   0.319007                     24            |
 |             5                   0.333192                      8            |
 |             6                   0.384737                      6            |
 |             7                   0.419258                     24            |
 |             8                   0.430149                     24            |
 |             9                   0.471205                     24            |
 |            10                   0.499788                     32            |
 |            11                   0.544101                     12            |
 |            12                   0.569034                     48            |
 |            13                   0.577106                     30            |
 |            14                   0.608323                     24            |
 |            15                   0.630723                     24            |
 |            16                   0.638015                     24            |
 |            17                   0.666385                      8            |
 |            18                   0.686893                     48            |
 |            19                   0.693595                     24            |
 |            20                   0.719778                     48            |
 |            21                   0.738806                     72            |
 |            22                   0.769475                      6            |
 |            23                   0.787303                     24            |
 |            24                   0.793156                     48            |
 |            25                   0.816151                     36            |
 |            26                   0.832981                     56            |
 |            27                   0.838515                     24            |
 |            28                   0.860299                     24            |
 |            29                   0.876281                     72            |
 |            30                   0.881544                     48            |
 |            31                   0.902289                     24            |
 |            32                   0.917540                     48            |
 |            33                   0.942410                     24            |
 |            34                   0.957022                     72            |
 |            35                   0.961843                     30            |
 |            36                   0.980891                     72            |
 +----------------------------------------------------------------------------+
 | The b-vectors are chosen automatically                                     |
 | The following shells are used:   1                                         |
 +----------------------------------------------------------------------------+
 |                        Shell   # Nearest-Neighbours                        |
 |                        -----   --------------------                        |
 |                          1               8                                 |
 +----------------------------------------------------------------------------+
 | Completeness relation is fully satisfied [Eq. (B1), PRB 56, 12847 (1997)]  |
 +----------------------------------------------------------------------------+
 |                  b_k Vectors (Ang^-1) and Weights (Ang^2)                  |
 |                  ----------------------------------------                  |
 |            No.         b_k(x)      b_k(y)      b_k(z)        w_b           |
 |            ---        --------------------------------     --------        |
 |             1        -0.096184    0.096184   -0.096184    13.511435        |
 |             2         0.096184    0.096184    0.096184    13.511435        |
 |             3        -0.096184   -0.096184    0.096184    13.511435        |
 |             4        -0.096184    0.096184    0.096184    13.511435        |
 |             5         0.096184   -0.096184    0.096184    13.511435        |
 |             6        -0.096184   -0.096184   -0.096184    13.511435        |
 |             7         0.096184    0.096184   -0.096184    13.511435        |
 |             8         0.096184   -0.096184   -0.096184    13.511435        |
 +----------------------------------------------------------------------------+
 |                           b_k Directions (Ang^-1)                          |
 |                           -----------------------                          |
 |            No.           x           y           z                         |
 |            ---        --------------------------------                     |
 |             1        -0.096184    0.096184   -0.096184                     |
 |             2         0.096184    0.096184    0.096184                     |
 |             3        -0.096184   -0.096184    0.096184                     |
 |             4        -0.096184    0.096184    0.096184                     |
 +----------------------------------------------------------------------------+
  
 Time to get kmesh              1.038 (sec)
 *============================================================================*
 |                              MEMORY ESTIMATE                               |
 |         Maximum RAM allocated during each phase of the calculation         |
 *============================================================================*
 |                            Wannierise:           11.24 Mb                  |
 |                          plot_wannier:           11.24 Mb                  |
 *----------------------------------------------------------------------------*
  
 Starting a new Wannier90 calculation ...


 Reading overlaps from mp-149.mmn    :  Created on  3Jan2024 at 14:27:56

 Reading projections from mp-149.amn :  Created on  3Jan2024 at 14:27:55  with SCDM

 Time to read overlaps          0.226 (sec)

 Writing checkpoint file mp-149.chk... done

 
 *------------------------------- WANNIERISE ---------------------------------*
 +--------------------------------------------------------------------+<-- CONV
 | Iter  Delta Spread     RMS Gradient      Spread (Ang^2)      Time  |<-- CONV
 +--------------------------------------------------------------------+<-- CONV
 
 ------------------------------------------------------------------------------
 Initial State
  WF centre and spread    1  ( -2.041388,  2.041389,  2.041389 )     2.20525123
  WF centre and spread    2  ( -0.680463,  0.680463,  2.041388 )     2.20525213
  WF centre and spread    3  ( -0.680463,  2.041389,  0.680463 )     2.20524900
  WF centre and spread    4  ( -2.041388,  0.680463,  0.680463 )     2.20525173
  Sum of centres and spreads ( -5.443702,  5.443704,  5.443704 )     8.82100409
 
      0     0.882E+01     0.0000000000        8.8210063079       0.00  <-- CONV
        O_D=      0.0000005 O_OD=      0.5855047 O_TOT=      8.8210063 <-- SPRD
 ------------------------------------------------------------------------------
 Cycle:      1
  WF centre and spread    1  ( -2.041388,  2.041389,  2.041389 )     2.17994857
  WF centre and spread    2  ( -0.680463,  0.680463,  2.041389 )     2.17995132
  WF centre and spread    3  ( -0.680463,  2.041389,  0.680463 )     2.17994822
  WF centre and spread    4  ( -2.041389,  0.680463,  0.680463 )     2.17994761
  Sum of centres and spreads ( -5.443702,  5.443704,  5.443704 )     8.71979572
 
      1    -0.101E+00     0.1187345718        8.7197979474       0.01  <-- CONV
        O_D=      0.0000056 O_OD=      0.4842912 O_TOT=      8.7197979 <-- SPRD
 Delta: O_D=  0.5079790E-05 O_OD= -0.1012134E+00 O_TOT= -0.1012084E+00 <-- DLTA
 ------------------------------------------------------------------------------
 Cycle:      2
  WF centre and spread    1  ( -2.041388,  2.041389,  2.041389 )     2.17190537
  WF centre and spread    2  ( -0.680463,  0.680463,  2.041389 )     2.17190875
  WF centre and spread    3  ( -0.680463,  2.041389,  0.680463 )     2.17190568
  WF centre and spread    4  ( -2.041388,  0.680463,  0.680463 )     2.17190597
  Sum of centres and spreads ( -5.443702,  5.443704,  5.443704 )     8.68762577
 
      2    -0.322E-01     0.0806980637        8.6876279960       0.02  <-- CONV
        O_D=      0.0000256 O_OD=      0.4521013 O_TOT=      8.6876280 <-- SPRD
 Delta: O_D=  0.2001607E-04 O_OD= -0.3218997E-01 O_TOT= -0.3216995E-01 <-- DLTA
 ------------------------------------------------------------------------------
 Cycle:      3
  WF centre and spread    1  ( -2.041388,  2.041389,  2.041389 )     2.16944486
  WF centre and spread    2  ( -0.680463,  0.680463,  2.041389 )     2.16945061
  WF centre and spread    3  ( -0.680463,  2.041389,  0.680463 )     2.16944693
  WF centre and spread    4  ( -2.041389,  0.680463,  0.680463 )     2.16945332
  Sum of centres and spreads ( -5.443702,  5.443704,  5.443704 )     8.67779572
 
      3    -0.983E-02     0.0491755978        8.6777979398       0.03  <-- CONV
        O_D=      0.0000939 O_OD=      0.4422029 O_TOT=      8.6777979 <-- SPRD
 Delta: O_D=  0.6829823E-04 O_OD= -0.9898354E-02 O_TOT= -0.9830056E-02 <-- DLTA
 ------------------------------------------------------------------------------
 Cycle:      4
  WF centre and spread    1  ( -2.041388,  2.041389,  2.041389 )     2.16873022
  WF centre and spread    2  ( -0.680463,  0.680463,  2.041389 )     2.16873293
  WF centre and spread    3  ( -0.680463,  2.041389,  0.680463 )     2.16872801
  WF centre and spread    4  ( -2.041389,  0.680463,  0.680463 )     2.16873981
  Sum of centres and spreads ( -5.443702,  5.443704,  5.443704 )     8.67493098
 
      4    -0.286E-02     0.0336044703        8.6749331984       0.03  <-- CONV
        O_D=      0.0000626 O_OD=      0.4393694 O_TOT=      8.6749332 <-- SPRD
 Delta: O_D= -0.3127456E-04 O_OD= -0.2833467E-02 O_TOT= -0.2864741E-02 <-- DLTA
 ------------------------------------------------------------------------------
 Cycle:      5
  WF centre and spread    1  ( -2.041388,  2.041389,  2.041389 )     2.16836783
  WF centre and spread    2  ( -0.680463,  0.680463,  2.041389 )     2.16836946
  WF centre and spread    3  ( -0.680463,  2.041389,  0.680463 )     2.16836555
  WF centre and spread    4  ( -2.041389,  0.680463,  0.680463 )     2.16837185
  Sum of centres and spreads ( -5.443702,  5.443704,  5.443704 )     8.67347469
 
      5    -0.146E-02     0.0230165160        8.6734769123       0.04  <-- CONV
        O_D=      0.0000181 O_OD=      0.4379577 O_TOT=      8.6734769 <-- SPRD
 Delta: O_D= -0.4454460E-04 O_OD= -0.1411741E-02 O_TOT= -0.1456286E-02 <-- DLTA
 ------------------------------------------------------------------------------
 Cycle:      6
  WF centre and spread    1  ( -2.041388,  2.041389,  2.041389 )     2.16823787
  WF centre and spread    2  ( -0.680463,  0.680463,  2.041389 )     2.16823986
  WF centre and spread    3  ( -0.680463,  2.041389,  0.680463 )     2.16823648
  WF centre and spread    4  ( -2.041388,  0.680463,  0.680463 )     2.16824019
  Sum of centres and spreads ( -5.443702,  5.443704,  5.443704 )     8.67295441
 
      6    -0.520E-03     0.0138128809        8.6729566292       0.05  <-- CONV
        O_D=      0.0000100 O_OD=      0.4374456 O_TOT=      8.6729566 <-- SPRD
 Delta: O_D= -0.8134002E-05 O_OD= -0.5121491E-03 O_TOT= -0.5202831E-03 <-- DLTA
 ------------------------------------------------------------------------------
 Cycle:      7
  WF centre and spread    1  ( -2.041388,  2.041389,  2.041389 )     2.16820444
  WF centre and spread    2  ( -0.680463,  0.680463,  2.041389 )     2.16820641
  WF centre and spread    3  ( -0.680463,  2.041389,  0.680463 )     2.16820347
  WF centre and spread    4  ( -2.041388,  0.680463,  0.680463 )     2.16820628
  Sum of centres and spreads ( -5.443702,  5.443704,  5.443704 )     8.67282060
 
      7    -0.134E-03     0.0087235696        8.6728228228       0.06  <-- CONV
        O_D=      0.0000040 O_OD=      0.4373177 O_TOT=      8.6728228 <-- SPRD
 Delta: O_D= -0.5987884E-05 O_OD= -0.1278186E-03 O_TOT= -0.1338065E-03 <-- DLTA
 ------------------------------------------------------------------------------
 Cycle:      8
  WF centre and spread    1  ( -2.041388,  2.041389,  2.041389 )     2.16818672
  WF centre and spread    2  ( -0.680463,  0.680463,  2.041389 )     2.16818874
  WF centre and spread    3  ( -0.680463,  2.041389,  0.680463 )     2.16818615
  WF centre and spread    4  ( -2.041388,  0.680463,  0.680463 )     2.16818816
  Sum of centres and spreads ( -5.443702,  5.443704,  5.443704 )     8.67274976
 
      8    -0.708E-04     0.0048561778        8.6727519822       0.07  <-- CONV
        O_D=      0.0000017 O_OD=      0.4372492 O_TOT=      8.6727520 <-- SPRD
 Delta: O_D= -0.2311044E-05 O_OD= -0.6852953E-04 O_TOT= -0.7084057E-04 <-- DLTA
 ------------------------------------------------------------------------------
 Cycle:      9
  WF centre and spread    1  ( -2.041388,  2.041389,  2.041389 )     2.16817971
  WF centre and spread    2  ( -0.680463,  0.680463,  2.041389 )     2.16818169
  WF centre and spread    3  ( -0.680463,  2.041389,  0.680463 )     2.16817934
  WF centre and spread    4  ( -2.041388,  0.680463,  0.680463 )     2.16818095
  Sum of centres and spreads ( -5.443702,  5.443704,  5.443704 )     8.67272169
 
      9    -0.281E-04     0.0033002802        8.6727239112       0.08  <-- CONV
        O_D=      0.0000006 O_OD=      0.4372222 O_TOT=      8.6727239 <-- SPRD
 Delta: O_D= -0.1090023E-05 O_OD= -0.2698096E-04 O_TOT= -0.2807098E-04 <-- DLTA
 ------------------------------------------------------------------------------
 Cycle:     10
  WF centre and spread    1  ( -2.041388,  2.041389,  2.041389 )     2.16817660
  WF centre and spread    2  ( -0.680463,  0.680463,  2.041389 )     2.16817851
  WF centre and spread    3  ( -0.680463,  2.041389,  0.680463 )     2.16817623
  WF centre and spread    4  ( -2.041388,  0.680463,  0.680463 )     2.16817779
  Sum of centres and spreads ( -5.443702,  5.443704,  5.443704 )     8.67270912
 
     10    -0.126E-04     0.0021383573        8.6727113444       0.08  <-- CONV
        O_D=      0.0000001 O_OD=      0.4372101 O_TOT=      8.6727113 <-- SPRD
 Delta: O_D= -0.4525017E-06 O_OD= -0.1211427E-04 O_TOT= -0.1256677E-04 <-- DLTA
 ------------------------------------------------------------------------------
 Cycle:     11
  WF centre and spread    1  ( -2.041388,  2.041389,  2.041389 )     2.16817570
  WF centre and spread    2  ( -0.680463,  0.680463,  2.041389 )     2.16817758
  WF centre and spread    3  ( -0.680463,  2.041389,  0.680463 )     2.16817531
  WF centre and spread    4  ( -2.041388,  0.680463,  0.680463 )     2.16817689
  Sum of centres and spreads ( -5.443702,  5.443704,  5.443704 )     8.67270548
 
     11    -0.365E-05     0.0011443034        8.6727076983       0.09  <-- CONV
        O_D=      0.0000001 O_OD=      0.4372065 O_TOT=      8.6727077 <-- SPRD
 Delta: O_D= -0.2160222E-07 O_OD= -0.3624554E-05 O_TOT= -0.3646157E-05 <-- DLTA
 ------------------------------------------------------------------------------
 Cycle:     12
  WF centre and spread    1  ( -2.041388,  2.041389,  2.041389 )     2.16817534
  WF centre and spread    2  ( -0.680463,  0.680463,  2.041389 )     2.16817716
  WF centre and spread    3  ( -0.680463,  2.041389,  0.680463 )     2.16817493
  WF centre and spread    4  ( -2.041388,  0.680463,  0.680463 )     2.16817651
  Sum of centres and spreads ( -5.443702,  5.443704,  5.443704 )     8.67270395
 
     12    -0.153E-05     0.0007790720        8.6727061683       0.10  <-- CONV
        O_D=      0.0000000 O_OD=      0.4372050 O_TOT=      8.6727062 <-- SPRD
 Delta: O_D= -0.5997681E-07 O_OD= -0.1470021E-05 O_TOT= -0.1529998E-05 <-- DLTA
 ------------------------------------------------------------------------------
 Cycle:     13
  WF centre and spread    1  ( -2.041388,  2.041389,  2.041389 )     2.16817522
  WF centre and spread    2  ( -0.680463,  0.680463,  2.041389 )     2.16817703
  WF centre and spread    3  ( -0.680463,  2.041389,  0.680463 )     2.16817480
  WF centre and spread    4  ( -2.041388,  0.680463,  0.680463 )     2.16817639
  Sum of centres and spreads ( -5.443702,  5.443704,  5.443704 )     8.67270344
 
     13    -0.502E-06     0.0005057519        8.6727056665       0.11  <-- CONV
        O_D=      0.0000000 O_OD=      0.4372045 O_TOT=      8.6727057 <-- SPRD
 Delta: O_D= -0.6041843E-08 O_OD= -0.4957241E-06 O_TOT= -0.5017659E-06 <-- DLTA
 ------------------------------------------------------------------------------
 Cycle:     14
  WF centre and spread    1  ( -2.041388,  2.041389,  2.041389 )     2.16817514
  WF centre and spread    2  ( -0.680463,  0.680463,  2.041389 )     2.16817690
  WF centre and spread    3  ( -0.680463,  2.041389,  0.680463 )     2.16817470
  WF centre and spread    4  ( -2.041388,  0.680463,  0.680463 )     2.16817630
  Sum of centres and spreads ( -5.443702,  5.443704,  5.443704 )     8.67270305
 
     14    -0.395E-06     0.0003522320        8.6727052714       0.12  <-- CONV
        O_D=      0.0000000 O_OD=      0.4372041 O_TOT=      8.6727053 <-- SPRD
 Delta: O_D= -0.2518937E-07 O_OD= -0.3699425E-06 O_TOT= -0.3951319E-06 <-- DLTA
 ------------------------------------------------------------------------------
 Cycle:     15
  WF centre and spread    1  ( -2.041388,  2.041389,  2.041389 )     2.16817509
  WF centre and spread    2  ( -0.680463,  0.680463,  2.041389 )     2.16817680
  WF centre and spread    3  ( -0.680463,  2.041389,  0.680463 )     2.16817463
  WF centre and spread    4  ( -2.041388,  0.680463,  0.680463 )     2.16817624
  Sum of centres and spreads ( -5.443702,  5.443704,  5.443704 )     8.67270276
 
     15    -0.287E-06     0.0002772929        8.6727049841       0.12  <-- CONV
        O_D=      0.0000000 O_OD=      0.4372039 O_TOT=      8.6727050 <-- SPRD
 Delta: O_D= -0.4381989E-08 O_OD= -0.2829347E-06 O_TOT= -0.2873167E-06 <-- DLTA
 ------------------------------------------------------------------------------
 Cycle:     16
  WF centre and spread    1  ( -2.041388,  2.041389,  2.041389 )     2.16817508
  WF centre and spread    2  ( -0.680463,  0.680463,  2.041389 )     2.16817676
  WF centre and spread    3  ( -0.680463,  2.041389,  0.680463 )     2.16817460
  WF centre and spread    4  ( -2.041388,  0.680463,  0.680463 )     2.16817622
  Sum of centres and spreads ( -5.443702,  5.443704,  5.443704 )     8.67270266
 
     16    -0.105E-06     0.0002058542        8.6727048786       0.13  <-- CONV
        O_D=      0.0000000 O_OD=      0.4372038 O_TOT=      8.6727049 <-- SPRD
 Delta: O_D= -0.4802882E-08 O_OD= -0.1006375E-06 O_TOT= -0.1054404E-06 <-- DLTA
 ------------------------------------------------------------------------------
 Cycle:     17
  WF centre and spread    1  ( -2.041388,  2.041389,  2.041389 )     2.16817509
  WF centre and spread    2  ( -0.680463,  0.680463,  2.041389 )     2.16817673
  WF centre and spread    3  ( -0.680463,  2.041389,  0.680463 )     2.16817458
  WF centre and spread    4  ( -2.041388,  0.680463,  0.680463 )     2.16817622
  Sum of centres and spreads ( -5.443702,  5.443704,  5.443704 )     8.67270262
 
     17    -0.410E-07     0.0001295704        8.6727048376       0.14  <-- CONV
        O_D=      0.0000000 O_OD=      0.4372037 O_TOT=      8.6727048 <-- SPRD
 Delta: O_D= -0.2037512E-08 O_OD= -0.3899981E-07 O_TOT= -0.4103732E-07 <-- DLTA
 ------------------------------------------------------------------------------
 Cycle:     18
  WF centre and spread    1  ( -2.041388,  2.041389,  2.041389 )     2.16817509
  WF centre and spread    2  ( -0.680463,  0.680463,  2.041389 )     2.16817671
  WF centre and spread    3  ( -0.680463,  2.041389,  0.680463 )     2.16817457
  WF centre and spread    4  ( -2.041388,  0.680463,  0.680463 )     2.16817622
  Sum of centres and spreads ( -5.443702,  5.443704,  5.443704 )     8.67270260
 
     18    -0.149E-07     0.0000786843        8.6727048227       0.15  <-- CONV
        O_D=      0.0000000 O_OD=      0.4372037 O_TOT=      8.6727048 <-- SPRD
 Delta: O_D= -0.6774261E-09 O_OD= -0.1423949E-07 O_TOT= -0.1491692E-07 <-- DLTA
 ------------------------------------------------------------------------------
 Cycle:     19
  WF centre and spread    1  ( -2.041388,  2.041389,  2.041389 )     2.16817510
  WF centre and spread    2  ( -0.680463,  0.680463,  2.041389 )     2.16817671
  WF centre and spread    3  ( -0.680463,  2.041389,  0.680463 )     2.16817457
  WF centre and spread    4  ( -2.041388,  0.680463,  0.680463 )     2.16817622
  Sum of centres and spreads ( -5.443702,  5.443704,  5.443704 )     8.67270259
 
     19    -0.521E-08     0.0000521722        8.6727048175       0.16  <-- CONV
        O_D=      0.0000000 O_OD=      0.4372037 O_TOT=      8.6727048 <-- SPRD
 Delta: O_D= -0.1726297E-09 O_OD= -0.5040011E-08 O_TOT= -0.5212641E-08 <-- DLTA
 ------------------------------------------------------------------------------
 Cycle:     20
  WF centre and spread    1  ( -2.041388,  2.041389,  2.041389 )     2.16817510
  WF centre and spread    2  ( -0.680463,  0.680463,  2.041389 )     2.16817670
  WF centre and spread    3  ( -0.680463,  2.041389,  0.680463 )     2.16817457
  WF centre and spread    4  ( -2.041388,  0.680463,  0.680463 )     2.16817622
  Sum of centres and spreads ( -5.443702,  5.443704,  5.443704 )     8.67270259
 
     20    -0.209E-08     0.0000280510        8.6727048154       0.16  <-- CONV
        O_D=      0.0000000 O_OD=      0.4372037 O_TOT=      8.6727048 <-- SPRD
 Delta: O_D= -0.5439441E-10 O_OD= -0.2035176E-08 O_TOT= -0.2089569E-08 <-- DLTA
 ------------------------------------------------------------------------------
 Cycle:     21
  WF centre and spread    1  ( -2.041388,  2.041389,  2.041389 )     2.16817510
  WF centre and spread    2  ( -0.680463,  0.680463,  2.041389 )     2.16817670
  WF centre and spread    3  ( -0.680463,  2.041389,  0.680463 )     2.16817457
  WF centre and spread    4  ( -2.041388,  0.680463,  0.680463 )     2.16817622
  Sum of centres and spreads ( -5.443702,  5.443704,  5.443704 )     8.67270259
 
     21    -0.308E-11     0.0000198180        8.6727048154       0.17  <-- CONV
        O_D=      0.0000000 O_OD=      0.4372037 O_TOT=      8.6727048 <-- SPRD
 Delta: O_D= -0.5900158E-13 O_OD= -0.3018696E-11 O_TOT= -0.3078426E-11 <-- DLTA
 ------------------------------------------------------------------------------
 Cycle:     22
  WF centre and spread    1  ( -2.041388,  2.041389,  2.041389 )     2.16817511
  WF centre and spread    2  ( -0.680463,  0.680463,  2.041389 )     2.16817669
  WF centre and spread    3  ( -0.680463,  2.041389,  0.680463 )     2.16817456
  WF centre and spread    4  ( -2.041388,  0.680463,  0.680463 )     2.16817623
  Sum of centres and spreads ( -5.443702,  5.443704,  5.443704 )     8.67270259
 
     22    -0.158E-08     0.0000198026        8.6727048138       0.18  <-- CONV
        O_D=      0.0000000 O_OD=      0.4372037 O_TOT=      8.6727048 <-- SPRD
 Delta: O_D=  0.1113266E-10 O_OD= -0.1587072E-08 O_TOT= -0.1575939E-08 <-- DLTA
 ------------------------------------------------------------------------------
 Cycle:     23
  WF centre and spread    1  ( -2.041388,  2.041389,  2.041389 )     2.16817511
  WF centre and spread    2  ( -0.680463,  0.680463,  2.041389 )     2.16817669
  WF centre and spread    3  ( -0.680463,  2.041389,  0.680463 )     2.16817456
  WF centre and spread    4  ( -2.041388,  0.680463,  0.680463 )     2.16817623
  Sum of centres and spreads ( -5.443702,  5.443704,  5.443704 )     8.67270259
 
     23    -0.218E-11     0.0000150368        8.6727048138       0.18  <-- CONV
        O_D=      0.0000000 O_OD=      0.4372037 O_TOT=      8.6727048 <-- SPRD
 Delta: O_D= -0.1095832E-13 O_OD= -0.2167933E-11 O_TOT= -0.2177813E-11 <-- DLTA
 ------------------------------------------------------------------------------
 Cycle:     24
  WF centre and spread    1  ( -2.041388,  2.041389,  2.041389 )     2.16817511
  WF centre and spread    2  ( -0.680463,  0.680463,  2.041389 )     2.16817668
  WF centre and spread    3  ( -0.680463,  2.041389,  0.680463 )     2.16817456
  WF centre and spread    4  ( -2.041388,  0.680463,  0.680463 )     2.16817623
  Sum of centres and spreads ( -5.443702,  5.443704,  5.443704 )     8.67270259
 
     24    -0.115E-08     0.0000150309        8.6727048127       0.19  <-- CONV
        O_D=      0.0000000 O_OD=      0.4372037 O_TOT=      8.6727048 <-- SPRD
 Delta: O_D= -0.1714430E-10 O_OD= -0.1128503E-08 O_TOT= -0.1145649E-08 <-- DLTA
 ------------------------------------------------------------------------------
 Cycle:     25
  WF centre and spread    1  ( -2.041388,  2.041389,  2.041389 )     2.16817511
  WF centre and spread    2  ( -0.680463,  0.680463,  2.041389 )     2.16817668
  WF centre and spread    3  ( -0.680463,  2.041389,  0.680463 )     2.16817456
  WF centre and spread    4  ( -2.041388,  0.680463,  0.680463 )     2.16817623
  Sum of centres and spreads ( -5.443702,  5.443704,  5.443704 )     8.67270259
 
     25    -0.385E-12     0.0000091432        8.6727048127       0.19  <-- CONV
        O_D=      0.0000000 O_OD=      0.4372037 O_TOT=      8.6727048 <-- SPRD
 Delta: O_D= -0.1882494E-13 O_OD= -0.3679279E-12 O_TOT= -0.3854694E-12 <-- DLTA
 ------------------------------------------------------------------------------
 Cycle:     26
  WF centre and spread    1  ( -2.041388,  2.041389,  2.041389 )     2.16817512
  WF centre and spread    2  ( -0.680463,  0.680463,  2.041389 )     2.16817668
  WF centre and spread    3  ( -0.680463,  2.041389,  0.680463 )     2.16817456
  WF centre and spread    4  ( -2.041388,  0.680463,  0.680463 )     2.16817623
  Sum of centres and spreads ( -5.443702,  5.443704,  5.443704 )     8.67270259
 
     26    -0.930E-10     0.0000091369        8.6727048126       0.20  <-- CONV
        O_D=      0.0000000 O_OD=      0.4372037 O_TOT=      8.6727048 <-- SPRD
 Delta: O_D= -0.3563451E-11 O_OD= -0.8948664E-10 O_TOT= -0.9304912E-10 <-- DLTA
 ------------------------------------------------------------------------------
 Cycle:     27
  WF centre and spread    1  ( -2.041388,  2.041389,  2.041389 )     2.16817512
  WF centre and spread    2  ( -0.680463,  0.680463,  2.041389 )     2.16817668
  WF centre and spread    3  ( -0.680463,  2.041389,  0.680463 )     2.16817456
  WF centre and spread    4  ( -2.041388,  0.680463,  0.680463 )     2.16817623
  Sum of centres and spreads ( -5.443702,  5.443704,  5.443704 )     8.67270259
 
     27    -0.719E-12     0.0000076777        8.6727048126       0.21  <-- CONV
        O_D=      0.0000000 O_OD=      0.4372037 O_TOT=      8.6727048 <-- SPRD
 Delta: O_D= -0.1501308E-13 O_OD= -0.7022716E-12 O_TOT= -0.7194245E-12 <-- DLTA
 ------------------------------------------------------------------------------
 Cycle:     28
  WF centre and spread    1  ( -2.041388,  2.041389,  2.041389 )     2.16817512
  WF centre and spread    2  ( -0.680463,  0.680463,  2.041389 )     2.16817668
  WF centre and spread    3  ( -0.680463,  2.041389,  0.680463 )     2.16817456
  WF centre and spread    4  ( -2.041388,  0.680463,  0.680463 )     2.16817623
  Sum of centres and spreads ( -5.443702,  5.443704,  5.443704 )     8.67270259
 
     28    -0.988E-12     0.0000076680        8.6727048126       0.21  <-- CONV
        O_D=      0.0000000 O_OD=      0.4372037 O_TOT=      8.6727048 <-- SPRD
 Delta: O_D= -0.1835153E-13 O_OD= -0.9697798E-12 O_TOT= -0.9876544E-12 <-- DLTA
 ------------------------------------------------------------------------------
 Cycle:     29
  WF centre and spread    1  ( -2.041388,  2.041389,  2.041389 )     2.16817512
  WF centre and spread    2  ( -0.680463,  0.680463,  2.041389 )     2.16817668
  WF centre and spread    3  ( -0.680463,  2.041389,  0.680463 )     2.16817456
  WF centre and spread    4  ( -2.041388,  0.680463,  0.680463 )     2.16817623
  Sum of centres and spreads ( -5.443702,  5.443704,  5.443704 )     8.67270259
 
     29    -0.125E-11     0.0000076552        8.6727048126       0.22  <-- CONV
        O_D=      0.0000000 O_OD=      0.4372037 O_TOT=      8.6727048 <-- SPRD
 Delta: O_D= -0.2151562E-13 O_OD= -0.1232237E-11 O_TOT= -0.1252332E-11 <-- DLTA
 ------------------------------------------------------------------------------
 Cycle:     30
  WF centre and spread    1  ( -2.041388,  2.041389,  2.041389 )     2.16817512
  WF centre and spread    2  ( -0.680463,  0.680463,  2.041389 )     2.16817667
  WF centre and spread    3  ( -0.680463,  2.041389,  0.680463 )     2.16817456
  WF centre and spread    4  ( -2.041388,  0.680463,  0.680463 )     2.16817624
  Sum of centres and spreads ( -5.443702,  5.443704,  5.443704 )     8.67270259
 
     30    -0.266E-09     0.0000076393        8.6727048123       0.22  <-- CONV
        O_D=      0.0000000 O_OD=      0.4372037 O_TOT=      8.6727048 <-- SPRD
 Delta: O_D=  0.8271437E-11 O_OD= -0.2738248E-09 O_TOT= -0.2655547E-09 <-- DLTA
 ------------------------------------------------------------------------------
 Cycle:     31
  WF centre and spread    1  ( -2.041388,  2.041389,  2.041389 )     2.16817512
  WF centre and spread    2  ( -0.680463,  0.680463,  2.041389 )     2.16817667
  WF centre and spread    3  ( -0.680463,  2.041389,  0.680463 )     2.16817456
  WF centre and spread    4  ( -2.041388,  0.680463,  0.680463 )     2.16817624
  Sum of centres and spreads ( -5.443702,  5.443704,  5.443704 )     8.67270259
 
     31    -0.266E-12     0.0000075991        8.6727048123       0.23  <-- CONV
        O_D=      0.0000000 O_OD=      0.4372037 O_TOT=      8.6727048 <-- SPRD
 Delta: O_D= -0.3942875E-13 O_OD= -0.2274847E-12 O_TOT= -0.2664535E-12 <-- DLTA
 ------------------------------------------------------------------------------
 Cycle:     32
  WF centre and spread    1  ( -2.041388,  2.041389,  2.041389 )     2.16817512
  WF centre and spread    2  ( -0.680463,  0.680463,  2.041389 )     2.16817667
  WF centre and spread    3  ( -0.680463,  2.041389,  0.680463 )     2.16817456
  WF centre and spread    4  ( -2.041388,  0.680463,  0.680463 )     2.16817624
  Sum of centres and spreads ( -5.443702,  5.443704,  5.443704 )     8.67270259
 
     32    -0.388E-10     0.0000075901        8.6727048123       0.24  <-- CONV
        O_D=      0.0000000 O_OD=      0.4372037 O_TOT=      8.6727048 <-- SPRD
 Delta: O_D= -0.5211559E-11 O_OD= -0.3361561E-10 O_TOT= -0.3882761E-10 <-- DLTA
 ------------------------------------------------------------------------------
 Cycle:     33
  WF centre and spread    1  ( -2.041388,  2.041389,  2.041389 )     2.16817513
  WF centre and spread    2  ( -0.680463,  0.680463,  2.041389 )     2.16817667
  WF centre and spread    3  ( -0.680463,  2.041389,  0.680463 )     2.16817456
  WF centre and spread    4  ( -2.041388,  0.680463,  0.680463 )     2.16817624
  Sum of centres and spreads ( -5.443702,  5.443704,  5.443704 )     8.67270259
 
     33    -0.380E-10     0.0000062477        8.6727048122       0.25  <-- CONV
        O_D=      0.0000000 O_OD=      0.4372037 O_TOT=      8.6727048 <-- SPRD
 Delta: O_D= -0.3246965E-11 O_OD= -0.3479744E-10 O_TOT= -0.3804423E-10 <-- DLTA
 ------------------------------------------------------------------------------
 Cycle:     34
  WF centre and spread    1  ( -2.041388,  2.041389,  2.041389 )     2.16817513
  WF centre and spread    2  ( -0.680463,  0.680463,  2.041389 )     2.16817667
  WF centre and spread    3  ( -0.680463,  2.041389,  0.680463 )     2.16817456
  WF centre and spread    4  ( -2.041388,  0.680463,  0.680463 )     2.16817624
  Sum of centres and spreads ( -5.443702,  5.443704,  5.443704 )     8.67270259
 
     34    -0.266E-10     0.0000050092        8.6727048122       0.25  <-- CONV
        O_D=      0.0000000 O_OD=      0.4372037 O_TOT=      8.6727048 <-- SPRD
 Delta: O_D= -0.5408146E-12 O_OD= -0.2602507E-10 O_TOT= -0.2656542E-10 <-- DLTA
 ------------------------------------------------------------------------------
 Cycle:     35
  WF centre and spread    1  ( -2.041388,  2.041389,  2.041389 )     2.16817513
  WF centre and spread    2  ( -0.680463,  0.680463,  2.041389 )     2.16817667
  WF centre and spread    3  ( -0.680463,  2.041389,  0.680463 )     2.16817456
  WF centre and spread    4  ( -2.041388,  0.680463,  0.680463 )     2.16817624
  Sum of centres and spreads ( -5.443702,  5.443704,  5.443704 )     8.67270259
 
     35    -0.298E-12     0.0000044585        8.6727048122       0.26  <-- CONV
        O_D=      0.0000000 O_OD=      0.4372037 O_TOT=      8.6727048 <-- SPRD
 Delta: O_D=  0.1751253E-14 O_OD= -0.2997602E-12 O_TOT= -0.2984279E-12 <-- DLTA
 ------------------------------------------------------------------------------
 Cycle:     36
  WF centre and spread    1  ( -2.041388,  2.041389,  2.041389 )     2.16817513
  WF centre and spread    2  ( -0.680463,  0.680463,  2.041389 )     2.16817667
  WF centre and spread    3  ( -0.680463,  2.041389,  0.680463 )     2.16817456
  WF centre and spread    4  ( -2.041388,  0.680463,  0.680463 )     2.16817624
  Sum of centres and spreads ( -5.443702,  5.443704,  5.443704 )     8.67270259
 
     36    -0.389E-12     0.0000044550        8.6727048122       0.26  <-- CONV
        O_D=      0.0000000 O_OD=      0.4372037 O_TOT=      8.6727048 <-- SPRD
 Delta: O_D=  0.1429957E-14 O_OD= -0.3910205E-12 O_TOT= -0.3890221E-12 <-- DLTA
 ------------------------------------------------------------------------------
 Cycle:     37
  WF centre and spread    1  ( -2.041388,  2.041389,  2.041389 )     2.16817513
  WF centre and spread    2  ( -0.680463,  0.680463,  2.041389 )     2.16817667
  WF centre and spread    3  ( -0.680463,  2.041389,  0.680463 )     2.16817456
  WF centre and spread    4  ( -2.041388,  0.680463,  0.680463 )     2.16817624
  Sum of centres and spreads ( -5.443702,  5.443704,  5.443704 )     8.67270259
 
     37    -0.924E-13     0.0000044506        8.6727048122       0.27  <-- CONV
        O_D=      0.0000000 O_OD=      0.4372037 O_TOT=      8.6727048 <-- SPRD
 Delta: O_D= -0.4363093E-15 O_OD= -0.9287016E-13 O_TOT= -0.9237056E-13 <-- DLTA
 ------------------------------------------------------------------------------
 Cycle:     38
  WF centre and spread    1  ( -2.041388,  2.041389,  2.041389 )     2.16817513
  WF centre and spread    2  ( -0.680463,  0.680463,  2.041389 )     2.16817667
  WF centre and spread    3  ( -0.680463,  2.041389,  0.680463 )     2.16817456
  WF centre and spread    4  ( -2.041388,  0.680463,  0.680463 )     2.16817624
  Sum of centres and spreads ( -5.443702,  5.443704,  5.443704 )     8.67270259
 
     38    -0.183E-12     0.0000044497        8.6727048122       0.27  <-- CONV
        O_D=      0.0000000 O_OD=      0.4372037 O_TOT=      8.6727048 <-- SPRD
 Delta: O_D= -0.8687641E-15 O_OD= -0.1804112E-12 O_TOT= -0.1829648E-12 <-- DLTA
 ------------------------------------------------------------------------------
 Cycle:     39
  WF centre and spread    1  ( -2.041388,  2.041389,  2.041389 )     2.16817513
  WF centre and spread    2  ( -0.680463,  0.680463,  2.041389 )     2.16817667
  WF centre and spread    3  ( -0.680463,  2.041389,  0.680463 )     2.16817456
  WF centre and spread    4  ( -2.041388,  0.680463,  0.680463 )     2.16817624
  Sum of centres and spreads ( -5.443702,  5.443704,  5.443704 )     8.67270259
 
     39    -0.275E-12     0.0000044480        8.6727048122       0.28  <-- CONV
        O_D=      0.0000000 O_OD=      0.4372037 O_TOT=      8.6727048 <-- SPRD
 Delta: O_D= -0.1293375E-14 O_OD= -0.2735034E-12 O_TOT= -0.2753353E-12 <-- DLTA
 ------------------------------------------------------------------------------
 Cycle:     40
  WF centre and spread    1  ( -2.041388,  2.041389,  2.041389 )     2.16817513
  WF centre and spread    2  ( -0.680463,  0.680463,  2.041389 )     2.16817667
  WF centre and spread    3  ( -0.680463,  2.041389,  0.680463 )     2.16817456
  WF centre and spread    4  ( -2.041388,  0.680463,  0.680463 )     2.16817624
  Sum of centres and spreads ( -5.443702,  5.443704,  5.443704 )     8.67270259
 
     40    -0.364E-12     0.0000044453        8.6727048122       0.28  <-- CONV
        O_D=      0.0000000 O_OD=      0.4372037 O_TOT=      8.6727048 <-- SPRD
 Delta: O_D= -0.1706242E-14 O_OD= -0.3635980E-12 O_TOT= -0.3641532E-12 <-- DLTA
 ------------------------------------------------------------------------------
 Cycle:     41
  WF centre and spread    1  ( -2.041388,  2.041389,  2.041389 )     2.16817513
  WF centre and spread    2  ( -0.680463,  0.680463,  2.041389 )     2.16817667
  WF centre and spread    3  ( -0.680463,  2.041389,  0.680463 )     2.16817456
  WF centre and spread    4  ( -2.041388,  0.680463,  0.680463 )     2.16817624
  Sum of centres and spreads ( -5.443702,  5.443704,  5.443704 )     8.67270259
 
     41    -0.455E-12     0.0000044418        8.6727048122       0.29  <-- CONV
        O_D=      0.0000000 O_OD=      0.4372037 O_TOT=      8.6727048 <-- SPRD
 Delta: O_D= -0.2103600E-14 O_OD= -0.4529155E-12 O_TOT= -0.4547474E-12 <-- DLTA
 ------------------------------------------------------------------------------
 Cycle:     42
  WF centre and spread    1  ( -2.041388,  2.041389,  2.041389 )     2.16817513
  WF centre and spread    2  ( -0.680463,  0.680463,  2.041389 )     2.16817666
  WF centre and spread    3  ( -0.680463,  2.041389,  0.680463 )     2.16817455
  WF centre and spread    4  ( -2.041388,  0.680463,  0.680463 )     2.16817624
  Sum of centres and spreads ( -5.443702,  5.443704,  5.443704 )     8.67270259
 
     42    -0.704E-10     0.0000044374        8.6727048121       0.29  <-- CONV
        O_D=      0.0000000 O_OD=      0.4372037 O_TOT=      8.6727048 <-- SPRD
 Delta: O_D= -0.3324030E-13 O_OD= -0.7039941E-10 O_TOT= -0.7043433E-10 <-- DLTA
 ------------------------------------------------------------------------------
 Cycle:     43
  WF centre and spread    1  ( -2.041388,  2.041389,  2.041389 )     2.16817513
  WF centre and spread    2  ( -0.680463,  0.680463,  2.041389 )     2.16817666
  WF centre and spread    3  ( -0.680463,  2.041389,  0.680463 )     2.16817455
  WF centre and spread    4  ( -2.041388,  0.680463,  0.680463 )     2.16817624
  Sum of centres and spreads ( -5.443702,  5.443704,  5.443704 )     8.67270259
 
     43    -0.675E-13     0.0000038134        8.6727048121       0.30  <-- CONV
        O_D=      0.0000000 O_OD=      0.4372037 O_TOT=      8.6727048 <-- SPRD
 Delta: O_D= -0.3239412E-15 O_OD= -0.6816769E-13 O_TOT= -0.6750156E-13 <-- DLTA
 ------------------------------------------------------------------------------
 Cycle:     44
  WF centre and spread    1  ( -2.041388,  2.041389,  2.041389 )     2.16817513
  WF centre and spread    2  ( -0.680463,  0.680463,  2.041389 )     2.16817666
  WF centre and spread    3  ( -0.680463,  2.041389,  0.680463 )     2.16817455
  WF centre and spread    4  ( -2.041388,  0.680463,  0.680463 )     2.16817624
  Sum of centres and spreads ( -5.443702,  5.443704,  5.443704 )     8.67270259
 
     44    -0.135E-12     0.0000038127        8.6727048121       0.30  <-- CONV
        O_D=      0.0000000 O_OD=      0.4372037 O_TOT=      8.6727048 <-- SPRD
 Delta: O_D= -0.6449052E-15 O_OD= -0.1343370E-12 O_TOT= -0.1350031E-12 <-- DLTA
 ------------------------------------------------------------------------------
 Cycle:     45
  WF centre and spread    1  ( -2.041388,  2.041389,  2.041389 )     2.16817513
  WF centre and spread    2  ( -0.680463,  0.680463,  2.041389 )     2.16817666
  WF centre and spread    3  ( -0.680463,  2.041389,  0.680463 )     2.16817455
  WF centre and spread    4  ( -2.041388,  0.680463,  0.680463 )     2.16817624
  Sum of centres and spreads ( -5.443702,  5.443704,  5.443704 )     8.67270259
 
     45    -0.201E-12     0.0000038114        8.6727048121       0.31  <-- CONV
        O_D=      0.0000000 O_OD=      0.4372037 O_TOT=      8.6727048 <-- SPRD
 Delta: O_D= -0.9598337E-15 O_OD= -0.1992850E-12 O_TOT= -0.2007283E-12 <-- DLTA
 ------------------------------------------------------------------------------
 Cycle:     46
  WF centre and spread    1  ( -2.041388,  2.041389,  2.041389 )     2.16817513
  WF centre and spread    2  ( -0.680463,  0.680463,  2.041389 )     2.16817666
  WF centre and spread    3  ( -0.680463,  2.041389,  0.680463 )     2.16817455
  WF centre and spread    4  ( -2.041388,  0.680463,  0.680463 )     2.16817624
  Sum of centres and spreads ( -5.443702,  5.443704,  5.443704 )     8.67270259
 
     46    -0.266E-12     0.0000038094        8.6727048121       0.31  <-- CONV
        O_D=      0.0000000 O_OD=      0.4372037 O_TOT=      8.6727048 <-- SPRD
 Delta: O_D= -0.1265737E-14 O_OD= -0.2671752E-12 O_TOT= -0.2664535E-12 <-- DLTA
 ------------------------------------------------------------------------------
 Cycle:     47
  WF centre and spread    1  ( -2.041388,  2.041389,  2.041389 )     2.16817513
  WF centre and spread    2  ( -0.680463,  0.680463,  2.041389 )     2.16817666
  WF centre and spread    3  ( -0.680463,  2.041389,  0.680463 )     2.16817455
  WF centre and spread    4  ( -2.041388,  0.680463,  0.680463 )     2.16817624
  Sum of centres and spreads ( -5.443702,  5.443704,  5.443704 )     8.67270259
 
     47    -0.338E-12     0.0000038068        8.6727048121       0.32  <-- CONV
        O_D=      0.0000000 O_OD=      0.4372037 O_TOT=      8.6727048 <-- SPRD
 Delta: O_D= -0.1559727E-14 O_OD= -0.3348433E-12 O_TOT= -0.3375078E-12 <-- DLTA
 ------------------------------------------------------------------------------
 Cycle:     48
  WF centre and spread    1  ( -2.041388,  2.041389,  2.041389 )     2.16817513
  WF centre and spread    2  ( -0.680463,  0.680463,  2.041389 )     2.16817666
  WF centre and spread    3  ( -0.680463,  2.041389,  0.680463 )     2.16817455
  WF centre and spread    4  ( -2.041388,  0.680463,  0.680463 )     2.16817624
  Sum of centres and spreads ( -5.443702,  5.443704,  5.443704 )     8.67270259
 
     48    -0.261E-10     0.0000038035        8.6727048121       0.32  <-- CONV
        O_D=      0.0000000 O_OD=      0.4372037 O_TOT=      8.6727048 <-- SPRD
 Delta: O_D= -0.6803227E-13 O_OD= -0.2608047E-10 O_TOT= -0.2614975E-10 <-- DLTA
 ------------------------------------------------------------------------------
 Cycle:     49
  WF centre and spread    1  ( -2.041388,  2.041389,  2.041389 )     2.16817513
  WF centre and spread    2  ( -0.680463,  0.680463,  2.041389 )     2.16817666
  WF centre and spread    3  ( -0.680463,  2.041389,  0.680463 )     2.16817455
  WF centre and spread    4  ( -2.041388,  0.680463,  0.680463 )     2.16817624
  Sum of centres and spreads ( -5.443702,  5.443704,  5.443704 )     8.67270259
 
     49    -0.568E-13     0.0000035492        8.6727048121       0.33  <-- CONV
        O_D=      0.0000000 O_OD=      0.4372037 O_TOT=      8.6727048 <-- SPRD
 Delta: O_D= -0.1085048E-16 O_OD= -0.5750955E-13 O_TOT= -0.5684342E-13 <-- DLTA
 ------------------------------------------------------------------------------
 Cycle:     50
  WF centre and spread    1  ( -2.041388,  2.041389,  2.041389 )     2.16817513
  WF centre and spread    2  ( -0.680463,  0.680463,  2.041389 )     2.16817666
  WF centre and spread    3  ( -0.680463,  2.041389,  0.680463 )     2.16817455
  WF centre and spread    4  ( -2.041388,  0.680463,  0.680463 )     2.16817624
  Sum of centres and spreads ( -5.443702,  5.443704,  5.443704 )     8.67270259
 
     50    -0.115E-12     0.0000035486        8.6727048121       0.33  <-- CONV
        O_D=      0.0000000 O_OD=      0.4372037 O_TOT=      8.6727048 <-- SPRD
 Delta: O_D= -0.2167875E-16 O_OD= -0.1160183E-12 O_TOT= -0.1154632E-12 <-- DLTA
 ------------------------------------------------------------------------------
 Cycle:     51
  WF centre and spread    1  ( -2.041388,  2.041389,  2.041389 )     2.16817513
  WF centre and spread    2  ( -0.680463,  0.680463,  2.041389 )     2.16817666
  WF centre and spread    3  ( -0.680463,  2.041389,  0.680463 )     2.16817455
  WF centre and spread    4  ( -2.041388,  0.680463,  0.680463 )     2.16817624
  Sum of centres and spreads ( -5.443702,  5.443704,  5.443704 )     8.67270259
 
     51    -0.176E-12     0.0000035475        8.6727048121       0.34  <-- CONV
        O_D=      0.0000000 O_OD=      0.4372037 O_TOT=      8.6727048 <-- SPRD
 Delta: O_D= -0.3245708E-16 O_OD= -0.1760814E-12 O_TOT= -0.1758593E-12 <-- DLTA
 ------------------------------------------------------------------------------
 Cycle:     52
  WF centre and spread    1  ( -2.041388,  2.041389,  2.041389 )     2.16817513
  WF centre and spread    2  ( -0.680463,  0.680463,  2.041389 )     2.16817666
  WF centre and spread    3  ( -0.680463,  2.041389,  0.680463 )     2.16817455
  WF centre and spread    4  ( -2.041388,  0.680463,  0.680463 )     2.16817624
  Sum of centres and spreads ( -5.443702,  5.443704,  5.443704 )     8.67270259
 
     52    -0.233E-12     0.0000035459        8.6727048121       0.34  <-- CONV
        O_D=      0.0000000 O_OD=      0.4372037 O_TOT=      8.6727048 <-- SPRD
 Delta: O_D= -0.4316039E-16 O_OD= -0.2312595E-12 O_TOT= -0.2327027E-12 <-- DLTA
 ------------------------------------------------------------------------------
 Cycle:     53
  WF centre and spread    1  ( -2.041388,  2.041389,  2.041389 )     2.16817513
  WF centre and spread    2  ( -0.680463,  0.680463,  2.041389 )     2.16817666
  WF centre and spread    3  ( -0.680463,  2.041389,  0.680463 )     2.16817455
  WF centre and spread    4  ( -2.041388,  0.680463,  0.680463 )     2.16817624
  Sum of centres and spreads ( -5.443702,  5.443704,  5.443704 )     8.67270259
 
     53    -0.171E-10     0.0000035437        8.6727048121       0.35  <-- CONV
        O_D=      0.0000000 O_OD=      0.4372037 O_TOT=      8.6727048 <-- SPRD
 Delta: O_D= -0.3017256E-14 O_OD= -0.1706274E-10 O_TOT= -0.1706368E-10 <-- DLTA
 ------------------------------------------------------------------------------
 Cycle:     54
  WF centre and spread    1  ( -2.041388,  2.041389,  2.041389 )     2.16817513
  WF centre and spread    2  ( -0.680463,  0.680463,  2.041389 )     2.16817666
  WF centre and spread    3  ( -0.680463,  2.041389,  0.680463 )     2.16817455
  WF centre and spread    4  ( -2.041388,  0.680463,  0.680463 )     2.16817624
  Sum of centres and spreads ( -5.443702,  5.443704,  5.443704 )     8.67270259
 
     54    -0.304E-12     0.0000033800        8.6727048121       0.36  <-- CONV
        O_D=      0.0000000 O_OD=      0.4372037 O_TOT=      8.6727048 <-- SPRD
 Delta: O_D= -0.5078969E-16 O_OD= -0.3040346E-12 O_TOT= -0.3037570E-12 <-- DLTA
 ------------------------------------------------------------------------------
 Cycle:     55
  WF centre and spread    1  ( -2.041388,  2.041389,  2.041389 )     2.16817513
  WF centre and spread    2  ( -0.680463,  0.680463,  2.041389 )     2.16817666
  WF centre and spread    3  ( -0.680463,  2.041389,  0.680463 )     2.16817455
  WF centre and spread    4  ( -2.041388,  0.680463,  0.680463 )     2.16817624
  Sum of centres and spreads ( -5.443702,  5.443704,  5.443704 )     8.67270259
 
     55    -0.515E-13     0.0000033771        8.6727048121       0.36  <-- CONV
        O_D=      0.0000000 O_OD=      0.4372037 O_TOT=      8.6727048 <-- SPRD
 Delta: O_D= -0.8611082E-17 O_OD= -0.5123679E-13 O_TOT= -0.5151435E-13 <-- DLTA
 ------------------------------------------------------------------------------
 Cycle:     56
  WF centre and spread    1  ( -2.041388,  2.041389,  2.041389 )     2.16817513
  WF centre and spread    2  ( -0.680463,  0.680463,  2.041389 )     2.16817666
  WF centre and spread    3  ( -0.680463,  2.041389,  0.680463 )     2.16817455
  WF centre and spread    4  ( -2.041388,  0.680463,  0.680463 )     2.16817624
  Sum of centres and spreads ( -5.443702,  5.443704,  5.443704 )     8.67270259
 
     56    -0.107E-12     0.0000033765        8.6727048121       0.36  <-- CONV
        O_D=      0.0000000 O_OD=      0.4372037 O_TOT=      8.6727048 <-- SPRD
 Delta: O_D= -0.1721401E-16 O_OD= -0.1061373E-12 O_TOT= -0.1065814E-12 <-- DLTA
 ------------------------------------------------------------------------------
 Cycle:     57
  WF centre and spread    1  ( -2.041388,  2.041389,  2.041389 )     2.16817513
  WF centre and spread    2  ( -0.680463,  0.680463,  2.041389 )     2.16817666
  WF centre and spread    3  ( -0.680463,  2.041389,  0.680463 )     2.16817455
  WF centre and spread    4  ( -2.041388,  0.680463,  0.680463 )     2.16817624
  Sum of centres and spreads ( -5.443702,  5.443704,  5.443704 )     8.67270259
 
     57    -0.158E-12     0.0000033755        8.6727048121       0.37  <-- CONV
        O_D=      0.0000000 O_OD=      0.4372037 O_TOT=      8.6727048 <-- SPRD
 Delta: O_D= -0.2579868E-16 O_OD= -0.1589839E-12 O_TOT= -0.1580958E-12 <-- DLTA
 ------------------------------------------------------------------------------
 Cycle:     58
  WF centre and spread    1  ( -2.041388,  2.041389,  2.041389 )     2.16817513
  WF centre and spread    2  ( -0.680463,  0.680463,  2.041389 )     2.16817666
  WF centre and spread    3  ( -0.680463,  2.041389,  0.680463 )     2.16817455
  WF centre and spread    4  ( -2.041388,  0.680463,  0.680463 )     2.16817624
  Sum of centres and spreads ( -5.443702,  5.443704,  5.443704 )     8.67270259
 
     58    -0.210E-12     0.0000033740        8.6727048121       0.37  <-- CONV
        O_D=      0.0000000 O_OD=      0.4372037 O_TOT=      8.6727048 <-- SPRD
 Delta: O_D= -0.3435388E-16 O_OD= -0.2097211E-12 O_TOT= -0.2096101E-12 <-- DLTA
 ------------------------------------------------------------------------------
 Cycle:     59
  WF centre and spread    1  ( -2.041388,  2.041389,  2.041389 )     2.16817513
  WF centre and spread    2  ( -0.680463,  0.680463,  2.041389 )     2.16817666
  WF centre and spread    3  ( -0.680463,  2.041389,  0.680463 )     2.16817455
  WF centre and spread    4  ( -2.041388,  0.680463,  0.680463 )     2.16817624
  Sum of centres and spreads ( -5.443702,  5.443704,  5.443704 )     8.67270259
 
     59    -0.265E-12     0.0000033719        8.6727048121       0.38  <-- CONV
        O_D=      0.0000000 O_OD=      0.4372037 O_TOT=      8.6727048 <-- SPRD
 Delta: O_D= -0.4287077E-16 O_OD= -0.2645106E-12 O_TOT= -0.2646772E-12 <-- DLTA
 ------------------------------------------------------------------------------
 Cycle:     60
  WF centre and spread    1  ( -2.041388,  2.041389,  2.041389 )     2.16817514
  WF centre and spread    2  ( -0.680463,  0.680463,  2.041389 )     2.16817666
  WF centre and spread    3  ( -0.680463,  2.041389,  0.680463 )     2.16817455
  WF centre and spread    4  ( -2.041388,  0.680463,  0.680463 )     2.16817624
  Sum of centres and spreads ( -5.443702,  5.443704,  5.443704 )     8.67270259
 
     60    -0.238E-10     0.0000033694        8.6727048120       0.39  <-- CONV
        O_D=      0.0000000 O_OD=      0.4372037 O_TOT=      8.6727048 <-- SPRD
 Delta: O_D= -0.3880169E-14 O_OD= -0.2380657E-10 O_TOT= -0.2381206E-10 <-- DLTA
 ------------------------------------------------------------------------------
 Cycle:     61
  WF centre and spread    1  ( -2.041388,  2.041389,  2.041389 )     2.16817514
  WF centre and spread    2  ( -0.680463,  0.680463,  2.041389 )     2.16817666
  WF centre and spread    3  ( -0.680463,  2.041389,  0.680463 )     2.16817455
  WF centre and spread    4  ( -2.041388,  0.680463,  0.680463 )     2.16817624
  Sum of centres and spreads ( -5.443702,  5.443704,  5.443704 )     8.67270259
 
     61    -0.462E-13     0.0000031293        8.6727048120       0.39  <-- CONV
        O_D=      0.0000000 O_OD=      0.4372037 O_TOT=      8.6727048 <-- SPRD
 Delta: O_D= -0.7659749E-17 O_OD= -0.4540812E-13 O_TOT= -0.4618528E-13 <-- DLTA
 ------------------------------------------------------------------------------
 Cycle:     62
  WF centre and spread    1  ( -2.041388,  2.041389,  2.041389 )     2.16817514
  WF centre and spread    2  ( -0.680463,  0.680463,  2.041389 )     2.16817666
  WF centre and spread    3  ( -0.680463,  2.041389,  0.680463 )     2.16817455
  WF centre and spread    4  ( -2.041388,  0.680463,  0.680463 )     2.16817624
  Sum of centres and spreads ( -5.443702,  5.443704,  5.443704 )     8.67270259
 
     62    -0.906E-13     0.0000031288        8.6727048120       0.40  <-- CONV
        O_D=      0.0000000 O_OD=      0.4372037 O_TOT=      8.6727048 <-- SPRD
 Delta: O_D= -0.1531531E-16 O_OD= -0.9042767E-13 O_TOT= -0.9059420E-13 <-- DLTA
 ------------------------------------------------------------------------------
 Cycle:     63
  WF centre and spread    1  ( -2.041388,  2.041389,  2.041389 )     2.16817514
  WF centre and spread    2  ( -0.680463,  0.680463,  2.041389 )     2.16817666
  WF centre and spread    3  ( -0.680463,  2.041389,  0.680463 )     2.16817455
  WF centre and spread    4  ( -2.041388,  0.680463,  0.680463 )     2.16817624
  Sum of centres and spreads ( -5.443702,  5.443704,  5.443704 )     8.67270259
 
     63    -0.135E-12     0.0000031279        8.6727048120       0.40  <-- CONV
        O_D=      0.0000000 O_OD=      0.4372037 O_TOT=      8.6727048 <-- SPRD
 Delta: O_D= -0.2295837E-16 O_OD= -0.1353917E-12 O_TOT= -0.1350031E-12 <-- DLTA
 ------------------------------------------------------------------------------
 Cycle:     64
  WF centre and spread    1  ( -2.041388,  2.041389,  2.041389 )     2.16817514
  WF centre and spread    2  ( -0.680463,  0.680463,  2.041389 )     2.16817666
  WF centre and spread    3  ( -0.680463,  2.041389,  0.680463 )     2.16817455
  WF centre and spread    4  ( -2.041388,  0.680463,  0.680463 )     2.16817624
  Sum of centres and spreads ( -5.443702,  5.443704,  5.443704 )     8.67270259
 
     64    -0.179E-12     0.0000031264        8.6727048120       0.40  <-- CONV
        O_D=      0.0000000 O_OD=      0.4372037 O_TOT=      8.6727048 <-- SPRD
 Delta: O_D= -0.3058417E-16 O_OD= -0.1799116E-12 O_TOT= -0.1794120E-12 <-- DLTA
 ------------------------------------------------------------------------------
 Cycle:     65
  WF centre and spread    1  ( -2.041388,  2.041389,  2.041389 )     2.16817514
  WF centre and spread    2  ( -0.680463,  0.680463,  2.041389 )     2.16817666
  WF centre and spread    3  ( -0.680463,  2.041389,  0.680463 )     2.16817455
  WF centre and spread    4  ( -2.041388,  0.680463,  0.680463 )     2.16817624
  Sum of centres and spreads ( -5.443702,  5.443704,  5.443704 )     8.67270259
 
     65    -0.227E-12     0.0000031246        8.6727048120       0.41  <-- CONV
        O_D=      0.0000000 O_OD=      0.4372037 O_TOT=      8.6727048 <-- SPRD
 Delta: O_D= -0.3818167E-16 O_OD= -0.2274292E-12 O_TOT= -0.2273737E-12 <-- DLTA
 ------------------------------------------------------------------------------
 Cycle:     66
  WF centre and spread    1  ( -2.041388,  2.041389,  2.041389 )     2.16817514
  WF centre and spread    2  ( -0.680463,  0.680463,  2.041389 )     2.16817666
  WF centre and spread    3  ( -0.680463,  2.041389,  0.680463 )     2.16817455
  WF centre and spread    4  ( -2.041388,  0.680463,  0.680463 )     2.16817624
  Sum of centres and spreads ( -5.443702,  5.443704,  5.443704 )     8.67270259
 
     66    -0.270E-12     0.0000031222        8.6727048120       0.41  <-- CONV
        O_D=      0.0000000 O_OD=      0.4372037 O_TOT=      8.6727048 <-- SPRD
 Delta: O_D= -0.4574917E-16 O_OD= -0.2691181E-12 O_TOT= -0.2700062E-12 <-- DLTA
 ------------------------------------------------------------------------------
 Cycle:     67
  WF centre and spread    1  ( -2.041388,  2.041389,  2.041389 )     2.16817514
  WF centre and spread    2  ( -0.680463,  0.680463,  2.041389 )     2.16817666
  WF centre and spread    3  ( -0.680463,  2.041389,  0.680463 )     2.16817455
  WF centre and spread    4  ( -2.041388,  0.680463,  0.680463 )     2.16817624
  Sum of centres and spreads ( -5.443702,  5.443704,  5.443704 )     8.67270259
 
     67    -0.462E-13     0.0000031194        8.6727048120       0.42  <-- CONV
        O_D=      0.0000000 O_OD=      0.4372037 O_TOT=      8.6727048 <-- SPRD
 Delta: O_D= -0.7634965E-17 O_OD= -0.4579670E-13 O_TOT= -0.4618528E-13 <-- DLTA
 ------------------------------------------------------------------------------
 Cycle:     68
  WF centre and spread    1  ( -2.041388,  2.041389,  2.041389 )     2.16817514
  WF centre and spread    2  ( -0.680463,  0.680463,  2.041389 )     2.16817666
  WF centre and spread    3  ( -0.680463,  2.041389,  0.680463 )     2.16817455
  WF centre and spread    4  ( -2.041388,  0.680463,  0.680463 )     2.16817624
  Sum of centres and spreads ( -5.443702,  5.443704,  5.443704 )     8.67270259
 
     68    -0.906E-13     0.0000031190        8.6727048120       0.42  <-- CONV
        O_D=      0.0000000 O_OD=      0.4372037 O_TOT=      8.6727048 <-- SPRD
 Delta: O_D= -0.1526526E-16 O_OD= -0.9064971E-13 O_TOT= -0.9059420E-13 <-- DLTA
 ------------------------------------------------------------------------------
 Cycle:     69
  WF centre and spread    1  ( -2.041388,  2.041389,  2.041389 )     2.16817514
  WF centre and spread    2  ( -0.680463,  0.680463,  2.041389 )     2.16817666
  WF centre and spread    3  ( -0.680463,  2.041389,  0.680463 )     2.16817455
  WF centre and spread    4  ( -2.041388,  0.680463,  0.680463 )     2.16817624
  Sum of centres and spreads ( -5.443702,  5.443704,  5.443704 )     8.67270259
 
     69    -0.133E-12     0.0000031180        8.6727048120       0.43  <-- CONV
        O_D=      0.0000000 O_OD=      0.4372037 O_TOT=      8.6727048 <-- SPRD
 Delta: O_D= -0.2288237E-16 O_OD= -0.1335598E-12 O_TOT= -0.1332268E-12 <-- DLTA
 ------------------------------------------------------------------------------
 Cycle:     70
  WF centre and spread    1  ( -2.041388,  2.041389,  2.041389 )     2.16817514
  WF centre and spread    2  ( -0.680463,  0.680463,  2.041389 )     2.16817666
  WF centre and spread    3  ( -0.680463,  2.041389,  0.680463 )     2.16817455
  WF centre and spread    4  ( -2.041388,  0.680463,  0.680463 )     2.16817624
  Sum of centres and spreads ( -5.443702,  5.443704,  5.443704 )     8.67270259
 
     70    -0.179E-12     0.0000031166        8.6727048120       0.43  <-- CONV
        O_D=      0.0000000 O_OD=      0.4372037 O_TOT=      8.6727048 <-- SPRD
 Delta: O_D= -0.3048294E-16 O_OD= -0.1800782E-12 O_TOT= -0.1794120E-12 <-- DLTA
 ------------------------------------------------------------------------------
 Cycle:     71
  WF centre and spread    1  ( -2.041388,  2.041389,  2.041389 )     2.16817514
  WF centre and spread    2  ( -0.680463,  0.680463,  2.041389 )     2.16817666
  WF centre and spread    3  ( -0.680463,  2.041389,  0.680463 )     2.16817455
  WF centre and spread    4  ( -2.041388,  0.680463,  0.680463 )     2.16817624
  Sum of centres and spreads ( -5.443702,  5.443704,  5.443704 )     8.67270259
 
     71    -0.224E-12     0.0000031148        8.6727048120       0.44  <-- CONV
        O_D=      0.0000000 O_OD=      0.4372037 O_TOT=      8.6727048 <-- SPRD
 Delta: O_D= -0.3805751E-16 O_OD= -0.2228218E-12 O_TOT= -0.2238210E-12 <-- DLTA
 ------------------------------------------------------------------------------
 Cycle:     72
  WF centre and spread    1  ( -2.041388,  2.041389,  2.041389 )     2.16817514
  WF centre and spread    2  ( -0.680463,  0.680463,  2.041389 )     2.16817666
  WF centre and spread    3  ( -0.680463,  2.041389,  0.680463 )     2.16817455
  WF centre and spread    4  ( -2.041388,  0.680463,  0.680463 )     2.16817624
  Sum of centres and spreads ( -5.443702,  5.443704,  5.443704 )     8.67270259
 
     72    -0.268E-12     0.0000031124        8.6727048120       0.44  <-- CONV
        O_D=      0.0000000 O_OD=      0.4372037 O_TOT=      8.6727048 <-- SPRD
 Delta: O_D= -0.4559863E-16 O_OD= -0.2685629E-12 O_TOT= -0.2682299E-12 <-- DLTA
 ------------------------------------------------------------------------------
 Cycle:     73
  WF centre and spread    1  ( -2.041388,  2.041389,  2.041389 )     2.16817514
  WF centre and spread    2  ( -0.680463,  0.680463,  2.041389 )     2.16817666
  WF centre and spread    3  ( -0.680463,  2.041389,  0.680463 )     2.16817455
  WF centre and spread    4  ( -2.041388,  0.680463,  0.680463 )     2.16817624
  Sum of centres and spreads ( -5.443702,  5.443704,  5.443704 )     8.67270259
 
     73    -0.462E-13     0.0000031096        8.6727048120       0.45  <-- CONV
        O_D=      0.0000000 O_OD=      0.4372037 O_TOT=      8.6727048 <-- SPRD
 Delta: O_D= -0.7609118E-17 O_OD= -0.4585221E-13 O_TOT= -0.4618528E-13 <-- DLTA
 ------------------------------------------------------------------------------
 Cycle:     74
  WF centre and spread    1  ( -2.041388,  2.041389,  2.041389 )     2.16817514
  WF centre and spread    2  ( -0.680463,  0.680463,  2.041389 )     2.16817666
  WF centre and spread    3  ( -0.680463,  2.041389,  0.680463 )     2.16817455
  WF centre and spread    4  ( -2.041388,  0.680463,  0.680463 )     2.16817624
  Sum of centres and spreads ( -5.443702,  5.443704,  5.443704 )     8.67270259
 
     74    -0.888E-13     0.0000031092        8.6727048120       0.45  <-- CONV
        O_D=      0.0000000 O_OD=      0.4372037 O_TOT=      8.6727048 <-- SPRD
 Delta: O_D= -0.1521496E-16 O_OD= -0.8987255E-13 O_TOT= -0.8881784E-13 <-- DLTA
 ------------------------------------------------------------------------------
 Cycle:     75
  WF centre and spread    1  ( -2.041388,  2.041389,  2.041389 )     2.16817514
  WF centre and spread    2  ( -0.680463,  0.680463,  2.041389 )     2.16817666
  WF centre and spread    3  ( -0.680463,  2.041389,  0.680463 )     2.16817455
  WF centre and spread    4  ( -2.041388,  0.680463,  0.680463 )     2.16817624
  Sum of centres and spreads ( -5.443702,  5.443704,  5.443704 )     8.67270259
 
     75    -0.133E-12     0.0000031082        8.6727048120       0.46  <-- CONV
        O_D=      0.0000000 O_OD=      0.4372037 O_TOT=      8.6727048 <-- SPRD
 Delta: O_D= -0.2280853E-16 O_OD= -0.1324496E-12 O_TOT= -0.1332268E-12 <-- DLTA
 ------------------------------------------------------------------------------
 Cycle:     76
  WF centre and spread    1  ( -2.041388,  2.041389,  2.041389 )     2.16817514
  WF centre and spread    2  ( -0.680463,  0.680463,  2.041389 )     2.16817666
  WF centre and spread    3  ( -0.680463,  2.041389,  0.680463 )     2.16817455
  WF centre and spread    4  ( -2.041388,  0.680463,  0.680463 )     2.16817624
  Sum of centres and spreads ( -5.443702,  5.443704,  5.443704 )     8.67270259
 
     76    -0.179E-12     0.0000031068        8.6727048120       0.46  <-- CONV
        O_D=      0.0000000 O_OD=      0.4372037 O_TOT=      8.6727048 <-- SPRD
 Delta: O_D= -0.3038284E-16 O_OD= -0.1796896E-12 O_TOT= -0.1794120E-12 <-- DLTA
 ------------------------------------------------------------------------------
 Cycle:     77
  WF centre and spread    1  ( -2.041388,  2.041389,  2.041389 )     2.16817514
  WF centre and spread    2  ( -0.680463,  0.680463,  2.041389 )     2.16817666
  WF centre and spread    3  ( -0.680463,  2.041389,  0.680463 )     2.16817455
  WF centre and spread    4  ( -2.041388,  0.680463,  0.680463 )     2.16817624
  Sum of centres and spreads ( -5.443702,  5.443704,  5.443704 )     8.67270259
 
     77    -0.222E-12     0.0000031050        8.6727048120       0.46  <-- CONV
        O_D=      0.0000000 O_OD=      0.4372037 O_TOT=      8.6727048 <-- SPRD
 Delta: O_D= -0.3793263E-16 O_OD= -0.2214895E-12 O_TOT= -0.2220446E-12 <-- DLTA
 ------------------------------------------------------------------------------
 Cycle:     78
  WF centre and spread    1  ( -2.041388,  2.041389,  2.041389 )     2.16817514
  WF centre and spread    2  ( -0.680463,  0.680463,  2.041389 )     2.16817666
  WF centre and spread    3  ( -0.680463,  2.041389,  0.680463 )     2.16817455
  WF centre and spread    4  ( -2.041388,  0.680463,  0.680463 )     2.16817624
  Sum of centres and spreads ( -5.443702,  5.443704,  5.443704 )     8.67270259
 
     78    -0.266E-12     0.0000031027        8.6727048120       0.47  <-- CONV
        O_D=      0.0000000 O_OD=      0.4372037 O_TOT=      8.6727048 <-- SPRD
 Delta: O_D= -0.4544929E-16 O_OD= -0.2673417E-12 O_TOT= -0.2664535E-12 <-- DLTA
 ------------------------------------------------------------------------------
 Cycle:     79
  WF centre and spread    1  ( -2.041388,  2.041389,  2.041389 )     2.16817514
  WF centre and spread    2  ( -0.680463,  0.680463,  2.041389 )     2.16817666
  WF centre and spread    3  ( -0.680463,  2.041389,  0.680463 )     2.16817455
  WF centre and spread    4  ( -2.041388,  0.680463,  0.680463 )     2.16817624
  Sum of centres and spreads ( -5.443702,  5.443704,  5.443704 )     8.67270259
 
     79    -0.444E-13     0.0000030999        8.6727048120       0.47  <-- CONV
        O_D=      0.0000000 O_OD=      0.4372037 O_TOT=      8.6727048 <-- SPRD
 Delta: O_D= -0.7585636E-17 O_OD= -0.4407585E-13 O_TOT= -0.4440892E-13 <-- DLTA
 ------------------------------------------------------------------------------
 Cycle:     80
  WF centre and spread    1  ( -2.041388,  2.041389,  2.041389 )     2.16817514
  WF centre and spread    2  ( -0.680463,  0.680463,  2.041389 )     2.16817666
  WF centre and spread    3  ( -0.680463,  2.041389,  0.680463 )     2.16817455
  WF centre and spread    4  ( -2.041388,  0.680463,  0.680463 )     2.16817624
  Sum of centres and spreads ( -5.443702,  5.443704,  5.443704 )     8.67270259
 
     80    -0.888E-13     0.0000030994        8.6727048120       0.48  <-- CONV
        O_D=      0.0000000 O_OD=      0.4372037 O_TOT=      8.6727048 <-- SPRD
 Delta: O_D= -0.1516474E-16 O_OD= -0.8981704E-13 O_TOT= -0.8881784E-13 <-- DLTA
 ------------------------------------------------------------------------------
 Cycle:     81
  WF centre and spread    1  ( -2.041388,  2.041389,  2.041389 )     2.16817514
  WF centre and spread    2  ( -0.680463,  0.680463,  2.041389 )     2.16817666
  WF centre and spread    3  ( -0.680463,  2.041389,  0.680463 )     2.16817455
  WF centre and spread    4  ( -2.041388,  0.680463,  0.680463 )     2.16817624
  Sum of centres and spreads ( -5.443702,  5.443704,  5.443704 )     8.67270259
 
     81    -0.133E-12     0.0000030985        8.6727048120       0.48  <-- CONV
        O_D=      0.0000000 O_OD=      0.4372037 O_TOT=      8.6727048 <-- SPRD
 Delta: O_D= -0.2273356E-16 O_OD= -0.1329492E-12 O_TOT= -0.1332268E-12 <-- DLTA
 ------------------------------------------------------------------------------
 Cycle:     82
  WF centre and spread    1  ( -2.041388,  2.041389,  2.041389 )     2.16817514
  WF centre and spread    2  ( -0.680463,  0.680463,  2.041389 )     2.16817666
  WF centre and spread    3  ( -0.680463,  2.041389,  0.680463 )     2.16817455
  WF centre and spread    4  ( -2.041388,  0.680463,  0.680463 )     2.16817624
  Sum of centres and spreads ( -5.443702,  5.443704,  5.443704 )     8.67270259
 
     82    -0.178E-12     0.0000030971        8.6727048120       0.49  <-- CONV
        O_D=      0.0000000 O_OD=      0.4372037 O_TOT=      8.6727048 <-- SPRD
 Delta: O_D= -0.3028385E-16 O_OD= -0.1764699E-12 O_TOT= -0.1776357E-12 <-- DLTA
 ------------------------------------------------------------------------------
 Cycle:     83
  WF centre and spread    1  ( -2.041388,  2.041389,  2.041389 )     2.16817514
  WF centre and spread    2  ( -0.680463,  0.680463,  2.041389 )     2.16817666
  WF centre and spread    3  ( -0.680463,  2.041389,  0.680463 )     2.16817455
  WF centre and spread    4  ( -2.041388,  0.680463,  0.680463 )     2.16817624
  Sum of centres and spreads ( -5.443702,  5.443704,  5.443704 )     8.67270259
 
     83    -0.220E-12     0.0000030952        8.6727048120       0.49  <-- CONV
        O_D=      0.0000000 O_OD=      0.4372037 O_TOT=      8.6727048 <-- SPRD
 Delta: O_D= -0.3780875E-16 O_OD= -0.2213230E-12 O_TOT= -0.2202682E-12 <-- DLTA
 ------------------------------------------------------------------------------
 Cycle:     84
  WF centre and spread    1  ( -2.041388,  2.041389,  2.041389 )     2.16817514
  WF centre and spread    2  ( -0.680463,  0.680463,  2.041389 )     2.16817666
  WF centre and spread    3  ( -0.680463,  2.041389,  0.680463 )     2.16817455
  WF centre and spread    4  ( -2.041388,  0.680463,  0.680463 )     2.16817624
  Sum of centres and spreads ( -5.443702,  5.443704,  5.443704 )     8.67270259
 
     84    -0.265E-12     0.0000030929        8.6727048120       0.50  <-- CONV
        O_D=      0.0000000 O_OD=      0.4372037 O_TOT=      8.6727048 <-- SPRD
 Delta: O_D= -0.4530117E-16 O_OD= -0.2651213E-12 O_TOT= -0.2646772E-12 <-- DLTA
 ------------------------------------------------------------------------------
 Cycle:     85
  WF centre and spread    1  ( -2.041388,  2.041389,  2.041389 )     2.16817514
  WF centre and spread    2  ( -0.680463,  0.680463,  2.041389 )     2.16817666
  WF centre and spread    3  ( -0.680463,  2.041389,  0.680463 )     2.16817455
  WF centre and spread    4  ( -2.041388,  0.680463,  0.680463 )     2.16817624
  Sum of centres and spreads ( -5.443702,  5.443704,  5.443704 )     8.67270259
 
     85    -0.444E-13     0.0000030902        8.6727048120       0.50  <-- CONV
        O_D=      0.0000000 O_OD=      0.4372037 O_TOT=      8.6727048 <-- SPRD
 Delta: O_D= -0.7559669E-17 O_OD= -0.4274359E-13 O_TOT= -0.4440892E-13 <-- DLTA
 ------------------------------------------------------------------------------
 Cycle:     86
  WF centre and spread    1  ( -2.041388,  2.041389,  2.041389 )     2.16817514
  WF centre and spread    2  ( -0.680463,  0.680463,  2.041389 )     2.16817666
  WF centre and spread    3  ( -0.680463,  2.041389,  0.680463 )     2.16817455
  WF centre and spread    4  ( -2.041388,  0.680463,  0.680463 )     2.16817624
  Sum of centres and spreads ( -5.443702,  5.443704,  5.443704 )     8.67270259
 
     86    -0.888E-13     0.0000030897        8.6727048120       0.51  <-- CONV
        O_D=      0.0000000 O_OD=      0.4372037 O_TOT=      8.6727048 <-- SPRD
 Delta: O_D= -0.1511594E-16 O_OD= -0.8937295E-13 O_TOT= -0.8881784E-13 <-- DLTA
 ------------------------------------------------------------------------------
[...]
  Sum of centres and spreads ( -5.443702,  5.443704,  5.443704 )     8.67270259
 
    476    -0.284E-13     0.0000016992        8.6727048119       2.45  <-- CONV
        O_D=      0.0000000 O_OD=      0.4372037 O_TOT=      8.6727048 <-- SPRD
 Delta: O_D= -0.7828100E-17 O_OD= -0.2758904E-13 O_TOT= -0.2842171E-13 <-- DLTA
 ------------------------------------------------------------------------------
 Cycle:    477
  WF centre and spread    1  ( -2.041388,  2.041389,  2.041389 )     2.16817516
  WF centre and spread    2  ( -0.680463,  0.680463,  2.041389 )     2.16817664
  WF centre and spread    3  ( -0.680463,  2.041389,  0.680463 )     2.16817454
  WF centre and spread    4  ( -2.041388,  0.680463,  0.680463 )     2.16817625
  Sum of centres and spreads ( -5.443702,  5.443704,  5.443704 )     8.67270259
 
    477    -0.409E-13     0.0000016987        8.6727048119       2.45  <-- CONV
        O_D=      0.0000000 O_OD=      0.4372037 O_TOT=      8.6727048 <-- SPRD
 Delta: O_D= -0.1173627E-16 O_OD= -0.4057865E-13 O_TOT= -0.4085621E-13 <-- DLTA
 ------------------------------------------------------------------------------
 Cycle:    478
  WF centre and spread    1  ( -2.041388,  2.041389,  2.041389 )     2.16817516
  WF centre and spread    2  ( -0.680463,  0.680463,  2.041389 )     2.16817664
  WF centre and spread    3  ( -0.680463,  2.041389,  0.680463 )     2.16817454
  WF centre and spread    4  ( -2.041388,  0.680463,  0.680463 )     2.16817625
  Sum of centres and spreads ( -5.443702,  5.443704,  5.443704 )     8.67270259
 
    478    -0.533E-13     0.0000016980        8.6727048119       2.46  <-- CONV
        O_D=      0.0000000 O_OD=      0.4372037 O_TOT=      8.6727048 <-- SPRD
 Delta: O_D= -0.1563455E-16 O_OD= -0.5340173E-13 O_TOT= -0.5329071E-13 <-- DLTA
 ------------------------------------------------------------------------------
 Cycle:    479
  WF centre and spread    1  ( -2.041388,  2.041389,  2.041389 )     2.16817516
  WF centre and spread    2  ( -0.680463,  0.680463,  2.041389 )     2.16817664
  WF centre and spread    3  ( -0.680463,  2.041389,  0.680463 )     2.16817454
  WF centre and spread    4  ( -2.041388,  0.680463,  0.680463 )     2.16817625
  Sum of centres and spreads ( -5.443702,  5.443704,  5.443704 )     8.67270259
 
    479    -0.675E-13     0.0000016971        8.6727048119       2.46  <-- CONV
        O_D=      0.0000000 O_OD=      0.4372037 O_TOT=      8.6727048 <-- SPRD
 Delta: O_D= -0.1951996E-16 O_OD= -0.6716849E-13 O_TOT= -0.6750156E-13 <-- DLTA
 ------------------------------------------------------------------------------
 Cycle:    480
  WF centre and spread    1  ( -2.041388,  2.041389,  2.041389 )     2.16817516
  WF centre and spread    2  ( -0.680463,  0.680463,  2.041389 )     2.16817664
  WF centre and spread    3  ( -0.680463,  2.041389,  0.680463 )     2.16817454
  WF centre and spread    4  ( -2.041388,  0.680463,  0.680463 )     2.16817625
  Sum of centres and spreads ( -5.443702,  5.443704,  5.443704 )     8.67270259
 
    480    -0.782E-13     0.0000016959        8.6727048119       2.47  <-- CONV
        O_D=      0.0000000 O_OD=      0.4372037 O_TOT=      8.6727048 <-- SPRD
 Delta: O_D= -0.2339029E-16 O_OD= -0.7860379E-13 O_TOT= -0.7815970E-13 <-- DLTA
 ------------------------------------------------------------------------------
 Cycle:    481
  WF centre and spread    1  ( -2.041388,  2.041389,  2.041389 )     2.16817516
  WF centre and spread    2  ( -0.680463,  0.680463,  2.041389 )     2.16817664
  WF centre and spread    3  ( -0.680463,  2.041389,  0.680463 )     2.16817454
  WF centre and spread    4  ( -2.041388,  0.680463,  0.680463 )     2.16817625
  Sum of centres and spreads ( -5.443702,  5.443704,  5.443704 )     8.67270259
 
    481    -0.124E-13     0.0000016945        8.6727048119       2.47  <-- CONV
        O_D=      0.0000000 O_OD=      0.4372037 O_TOT=      8.6727048 <-- SPRD
 Delta: O_D= -0.3902211E-17 O_OD= -0.1354472E-13 O_TOT= -0.1243450E-13 <-- DLTA
 ------------------------------------------------------------------------------
 Cycle:    482
  WF centre and spread    1  ( -2.041388,  2.041389,  2.041389 )     2.16817516
  WF centre and spread    2  ( -0.680463,  0.680463,  2.041389 )     2.16817664
  WF centre and spread    3  ( -0.680463,  2.041389,  0.680463 )     2.16817454
  WF centre and spread    4  ( -2.041388,  0.680463,  0.680463 )     2.16817625
  Sum of centres and spreads ( -5.443702,  5.443704,  5.443704 )     8.67270259
 
    482    -0.284E-13     0.0000016943        8.6727048119       2.48  <-- CONV
        O_D=      0.0000000 O_OD=      0.4372037 O_TOT=      8.6727048 <-- SPRD
 Delta: O_D= -0.7802948E-17 O_OD= -0.2675637E-13 O_TOT= -0.2842171E-13 <-- DLTA
 ------------------------------------------------------------------------------
 Cycle:    483
  WF centre and spread    1  ( -2.041388,  2.041389,  2.041389 )     2.16817516
  WF centre and spread    2  ( -0.680463,  0.680463,  2.041389 )     2.16817664
  WF centre and spread    3  ( -0.680463,  2.041389,  0.680463 )     2.16817454
  WF centre and spread    4  ( -2.041388,  0.680463,  0.680463 )     2.16817625
  Sum of centres and spreads ( -5.443702,  5.443704,  5.443704 )     8.67270259
 
    483    -0.318E-12     0.0000016938        8.6727048119       2.49  <-- CONV
        O_D=      0.0000000 O_OD=      0.4372037 O_TOT=      8.6727048 <-- SPRD
 Delta: O_D= -0.9301096E-16 O_OD= -0.3183009E-12 O_TOT= -0.3179679E-12 <-- DLTA
 ------------------------------------------------------------------------------
 Cycle:    484
  WF centre and spread    1  ( -2.041388,  2.041389,  2.041389 )     2.16817516
  WF centre and spread    2  ( -0.680463,  0.680463,  2.041389 )     2.16817664
  WF centre and spread    3  ( -0.680463,  2.041389,  0.680463 )     2.16817454
  WF centre and spread    4  ( -2.041388,  0.680463,  0.680463 )     2.16817625
  Sum of centres and spreads ( -5.443702,  5.443704,  5.443704 )     8.67270259
 
    484    -0.480E-12     0.0000016883        8.6727048119       2.49  <-- CONV
        O_D=      0.0000000 O_OD=      0.4372037 O_TOT=      8.6727048 <-- SPRD
 Delta: O_D= -0.1421088E-15 O_OD= -0.4807821E-12 O_TOT= -0.4796163E-12 <-- DLTA
 ------------------------------------------------------------------------------
 Cycle:    485
  WF centre and spread    1  ( -2.041388,  2.041389,  2.041389 )     2.16817516
  WF centre and spread    2  ( -0.680463,  0.680463,  2.041389 )     2.16817664
  WF centre and spread    3  ( -0.680463,  2.041389,  0.680463 )     2.16817454
  WF centre and spread    4  ( -2.041388,  0.680463,  0.680463 )     2.16817625
  Sum of centres and spreads ( -5.443702,  5.443704,  5.443704 )     8.67270259
 
    485    -0.639E-13     0.0000016798        8.6727048119       2.50  <-- CONV
        O_D=      0.0000000 O_OD=      0.4372037 O_TOT=      8.6727048 <-- SPRD
 Delta: O_D= -0.1913979E-16 O_OD= -0.6306067E-13 O_TOT= -0.6394885E-13 <-- DLTA
 ------------------------------------------------------------------------------
 Cycle:    486
  WF centre and spread    1  ( -2.041388,  2.041389,  2.041389 )     2.16817516
  WF centre and spread    2  ( -0.680463,  0.680463,  2.041389 )     2.16817664
  WF centre and spread    3  ( -0.680463,  2.041389,  0.680463 )     2.16817454
  WF centre and spread    4  ( -2.041388,  0.680463,  0.680463 )     2.16817625
  Sum of centres and spreads ( -5.443702,  5.443704,  5.443704 )     8.67270259
 
    486    -0.782E-13     0.0000016786        8.6727048119       2.50  <-- CONV
        O_D=      0.0000000 O_OD=      0.4372037 O_TOT=      8.6727048 <-- SPRD
 Delta: O_D= -0.2296255E-16 O_OD= -0.7904788E-13 O_TOT= -0.7815970E-13 <-- DLTA
 ------------------------------------------------------------------------------
 Cycle:    487
  WF centre and spread    1  ( -2.041388,  2.041389,  2.041389 )     2.16817516
  WF centre and spread    2  ( -0.680463,  0.680463,  2.041389 )     2.16817664
  WF centre and spread    3  ( -0.680463,  2.041389,  0.680463 )     2.16817454
  WF centre and spread    4  ( -2.041388,  0.680463,  0.680463 )     2.16817625
  Sum of centres and spreads ( -5.443702,  5.443704,  5.443704 )     8.67270259
 
    487    -0.142E-13     0.0000016773        8.6727048119       2.51  <-- CONV
        O_D=      0.0000000 O_OD=      0.4372037 O_TOT=      8.6727048 <-- SPRD
 Delta: O_D= -0.3855575E-17 O_OD= -0.1315614E-13 O_TOT= -0.1421085E-13 <-- DLTA
 ------------------------------------------------------------------------------
 Cycle:    488
  WF centre and spread    1  ( -2.041388,  2.041389,  2.041389 )     2.16817516
  WF centre and spread    2  ( -0.680463,  0.680463,  2.041389 )     2.16817664
  WF centre and spread    3  ( -0.680463,  2.041389,  0.680463 )     2.16817454
  WF centre and spread    4  ( -2.041388,  0.680463,  0.680463 )     2.16817625
  Sum of centres and spreads ( -5.443702,  5.443704,  5.443704 )     8.67270259
 
    488    -0.249E-13     0.0000016770        8.6727048119       2.51  <-- CONV
        O_D=      0.0000000 O_OD=      0.4372037 O_TOT=      8.6727048 <-- SPRD
 Delta: O_D= -0.7708027E-17 O_OD= -0.2492451E-13 O_TOT= -0.2486900E-13 <-- DLTA
 ------------------------------------------------------------------------------
 Cycle:    489
  WF centre and spread    1  ( -2.041388,  2.041389,  2.041389 )     2.16817516
  WF centre and spread    2  ( -0.680463,  0.680463,  2.041389 )     2.16817664
  WF centre and spread    3  ( -0.680463,  2.041389,  0.680463 )     2.16817454
  WF centre and spread    4  ( -2.041388,  0.680463,  0.680463 )     2.16817625
  Sum of centres and spreads ( -5.443702,  5.443704,  5.443704 )     8.67270259
 
    489    -0.391E-13     0.0000016766        8.6727048119       2.52  <-- CONV
        O_D=      0.0000000 O_OD=      0.4372037 O_TOT=      8.6727048 <-- SPRD
 Delta: O_D= -0.1155471E-16 O_OD= -0.3902434E-13 O_TOT= -0.3907985E-13 <-- DLTA
 ------------------------------------------------------------------------------
 Cycle:    490
  WF centre and spread    1  ( -2.041388,  2.041389,  2.041389 )     2.16817516
  WF centre and spread    2  ( -0.680463,  0.680463,  2.041389 )     2.16817664
  WF centre and spread    3  ( -0.680463,  2.041389,  0.680463 )     2.16817454
  WF centre and spread    4  ( -2.041388,  0.680463,  0.680463 )     2.16817625
  Sum of centres and spreads ( -5.443702,  5.443704,  5.443704 )     8.67270259
 
    490    -0.515E-13     0.0000016759        8.6727048119       2.52  <-- CONV
        O_D=      0.0000000 O_OD=      0.4372037 O_TOT=      8.6727048 <-- SPRD
 Delta: O_D= -0.1539305E-16 O_OD= -0.5212497E-13 O_TOT= -0.5151435E-13 <-- DLTA
 ------------------------------------------------------------------------------
 Cycle:    491
  WF centre and spread    1  ( -2.041388,  2.041389,  2.041389 )     2.16817516
  WF centre and spread    2  ( -0.680463,  0.680463,  2.041389 )     2.16817664
  WF centre and spread    3  ( -0.680463,  2.041389,  0.680463 )     2.16817454
  WF centre and spread    4  ( -2.041388,  0.680463,  0.680463 )     2.16817625
  Sum of centres and spreads ( -5.443702,  5.443704,  5.443704 )     8.67270259
 
    491    -0.657E-13     0.0000016750        8.6727048119       2.53  <-- CONV
        O_D=      0.0000000 O_OD=      0.4372037 O_TOT=      8.6727048 <-- SPRD
 Delta: O_D= -0.1921797E-16 O_OD= -0.6505907E-13 O_TOT= -0.6572520E-13 <-- DLTA
 ------------------------------------------------------------------------------
 Cycle:    492
  WF centre and spread    1  ( -2.041388,  2.041389,  2.041389 )     2.16817516
  WF centre and spread    2  ( -0.680463,  0.680463,  2.041389 )     2.16817664
  WF centre and spread    3  ( -0.680463,  2.041389,  0.680463 )     2.16817454
  WF centre and spread    4  ( -2.041388,  0.680463,  0.680463 )     2.16817625
  Sum of centres and spreads ( -5.443702,  5.443704,  5.443704 )     8.67270259
 
    492    -0.764E-13     0.0000016738        8.6727048119       2.53  <-- CONV
        O_D=      0.0000000 O_OD=      0.4372037 O_TOT=      8.6727048 <-- SPRD
 Delta: O_D= -0.2302889E-16 O_OD= -0.7721601E-13 O_TOT= -0.7638334E-13 <-- DLTA
 ------------------------------------------------------------------------------
 Cycle:    493
  WF centre and spread    1  ( -2.041388,  2.041389,  2.041389 )     2.16817516
  WF centre and spread    2  ( -0.680463,  0.680463,  2.041389 )     2.16817664
  WF centre and spread    3  ( -0.680463,  2.041389,  0.680463 )     2.16817454
  WF centre and spread    4  ( -2.041388,  0.680463,  0.680463 )     2.16817625
  Sum of centres and spreads ( -5.443702,  5.443704,  5.443704 )     8.67270259
 
    493    -0.142E-13     0.0000016725        8.6727048119       2.53  <-- CONV
        O_D=      0.0000000 O_OD=      0.4372037 O_TOT=      8.6727048 <-- SPRD
 Delta: O_D= -0.3842111E-17 O_OD= -0.1382228E-13 O_TOT= -0.1421085E-13 <-- DLTA
 ------------------------------------------------------------------------------
 Cycle:    494
  WF centre and spread    1  ( -2.041388,  2.041389,  2.041389 )     2.16817516
  WF centre and spread    2  ( -0.680463,  0.680463,  2.041389 )     2.16817664
  WF centre and spread    3  ( -0.680463,  2.041389,  0.680463 )     2.16817454
  WF centre and spread    4  ( -2.041388,  0.680463,  0.680463 )     2.16817625
  Sum of centres and spreads ( -5.443702,  5.443704,  5.443704 )     8.67270259
 
    494    -0.249E-13     0.0000016722        8.6727048119       2.54  <-- CONV
        O_D=      0.0000000 O_OD=      0.4372037 O_TOT=      8.6727048 <-- SPRD
 Delta: O_D= -0.7681286E-17 O_OD= -0.2442491E-13 O_TOT= -0.2486900E-13 <-- DLTA
 ------------------------------------------------------------------------------
 Cycle:    495
  WF centre and spread    1  ( -2.041388,  2.041389,  2.041389 )     2.16817516
  WF centre and spread    2  ( -0.680463,  0.680463,  2.041389 )     2.16817664
  WF centre and spread    3  ( -0.680463,  2.041389,  0.680463 )     2.16817454
  WF centre and spread    4  ( -2.041388,  0.680463,  0.680463 )     2.16817625
  Sum of centres and spreads ( -5.443702,  5.443704,  5.443704 )     8.67270259
 
    495    -0.391E-13     0.0000016718        8.6727048119       2.54  <-- CONV
        O_D=      0.0000000 O_OD=      0.4372037 O_TOT=      8.6727048 <-- SPRD
 Delta: O_D= -0.1151550E-16 O_OD= -0.3880229E-13 O_TOT= -0.3907985E-13 <-- DLTA
 ------------------------------------------------------------------------------
 Cycle:    496
  WF centre and spread    1  ( -2.041388,  2.041389,  2.041389 )     2.16817516
  WF centre and spread    2  ( -0.680463,  0.680463,  2.041389 )     2.16817664
  WF centre and spread    3  ( -0.680463,  2.041389,  0.680463 )     2.16817454
  WF centre and spread    4  ( -2.041388,  0.680463,  0.680463 )     2.16817625
  Sum of centres and spreads ( -5.443702,  5.443704,  5.443704 )     8.67270259
 
    496    -0.533E-13     0.0000016711        8.6727048119       2.55  <-- CONV
        O_D=      0.0000000 O_OD=      0.4372037 O_TOT=      8.6727048 <-- SPRD
 Delta: O_D= -0.1534018E-16 O_OD= -0.5362377E-13 O_TOT= -0.5329071E-13 <-- DLTA
 ------------------------------------------------------------------------------
 Cycle:    497
  WF centre and spread    1  ( -2.041388,  2.041389,  2.041389 )     2.16817516
  WF centre and spread    2  ( -0.680463,  0.680463,  2.041389 )     2.16817664
  WF centre and spread    3  ( -0.680463,  2.041389,  0.680463 )     2.16817454
  WF centre and spread    4  ( -2.041388,  0.680463,  0.680463 )     2.16817625
  Sum of centres and spreads ( -5.443702,  5.443704,  5.443704 )     8.67270259
 
    497    -0.639E-13     0.0000016702        8.6727048119       2.55  <-- CONV
        O_D=      0.0000000 O_OD=      0.4372037 O_TOT=      8.6727048 <-- SPRD
 Delta: O_D= -0.1915238E-16 O_OD= -0.6389334E-13 O_TOT= -0.6394885E-13 <-- DLTA
 ------------------------------------------------------------------------------
 Cycle:    498
  WF centre and spread    1  ( -2.041388,  2.041389,  2.041389 )     2.16817516
  WF centre and spread    2  ( -0.680463,  0.680463,  2.041389 )     2.16817664
  WF centre and spread    3  ( -0.680463,  2.041389,  0.680463 )     2.16817454
  WF centre and spread    4  ( -2.041388,  0.680463,  0.680463 )     2.16817625
  Sum of centres and spreads ( -5.443702,  5.443704,  5.443704 )     8.67270259
 
    498    -0.764E-13     0.0000016690        8.6727048119       2.56  <-- CONV
        O_D=      0.0000000 O_OD=      0.4372037 O_TOT=      8.6727048 <-- SPRD
 Delta: O_D= -0.2294971E-16 O_OD= -0.7704948E-13 O_TOT= -0.7638334E-13 <-- DLTA
 ------------------------------------------------------------------------------
 Cycle:    499
  WF centre and spread    1  ( -2.041388,  2.041389,  2.041389 )     2.16817516
  WF centre and spread    2  ( -0.680463,  0.680463,  2.041389 )     2.16817664
  WF centre and spread    3  ( -0.680463,  2.041389,  0.680463 )     2.16817454
  WF centre and spread    4  ( -2.041388,  0.680463,  0.680463 )     2.16817625
  Sum of centres and spreads ( -5.443702,  5.443704,  5.443704 )     8.67270259
 
    499    -0.124E-13     0.0000016677        8.6727048119       2.56  <-- CONV
        O_D=      0.0000000 O_OD=      0.4372037 O_TOT=      8.6727048 <-- SPRD
 Delta: O_D= -0.3828186E-17 O_OD= -0.1260103E-13 O_TOT= -0.1243450E-13 <-- DLTA
 ------------------------------------------------------------------------------
 Cycle:    500
  WF centre and spread    1  ( -2.041388,  2.041389,  2.041389 )     2.16817516
  WF centre and spread    2  ( -0.680463,  0.680463,  2.041389 )     2.16817664
  WF centre and spread    3  ( -0.680463,  2.041389,  0.680463 )     2.16817454
  WF centre and spread    4  ( -2.041388,  0.680463,  0.680463 )     2.16817625
  Sum of centres and spreads ( -5.443702,  5.443704,  5.443704 )     8.67270259
 
    500    -0.249E-13     0.0000016674        8.6727048119       2.57  <-- CONV
        O_D=      0.0000000 O_OD=      0.4372037 O_TOT=      8.6727048 <-- SPRD
 Delta: O_D= -0.7655459E-17 O_OD= -0.2520206E-13 O_TOT= -0.2486900E-13 <-- DLTA
 ------------------------------------------------------------------------------

 Writing checkpoint file mp-149.chk... done

 Final State
  WF centre and spread    1  ( -2.041388,  2.041389,  2.041389 )     2.16817516
  WF centre and spread    2  ( -0.680463,  0.680463,  2.041389 )     2.16817664
  WF centre and spread    3  ( -0.680463,  2.041389,  0.680463 )     2.16817454
  WF centre and spread    4  ( -2.041388,  0.680463,  0.680463 )     2.16817625
  Sum of centres and spreads ( -5.443702,  5.443704,  5.443704 )     8.67270259
 
         Spreads (Ang^2)       Omega I      =     8.235501111
        ================       Omega D      =     0.000000000
                               Omega OD     =     0.437203701
    Final Spread (Ang^2)       Omega Total  =     8.672704812
 ------------------------------------------------------------------------------
 Time for wannierise            2.565 (sec)

 Writing checkpoint file mp-149.chk... done

 Time for plotting              0.000 (sec)
 Total Execution Time           3.933 (sec)

 *===========================================================================*
 |                             TIMING INFORMATION                            |
 *===========================================================================*
 |    Tag                                                Ncalls      Time (s)|
 |---------------------------------------------------------------------------|
 |kmesh: get                                        :         1         1.038|
 |overlap: allocate                                 :         1         0.002|
 |overlap: read                                     :         1         0.222|
 |wann: main                                        :         1         2.565|
 |plot: main                                        :         1         0.000|
 *---------------------------------------------------------------------------*
 
 All done: wannier90 exiting
