<?xml version="1.0" encoding="ISO-8859-1"?>
<modeling>
 <generator>
  <i name="program" type="string">vasp </i>
  <i name="version" type="string">5.4.4.18Apr17-6-g9f103f2a35  </i>
  <i name="subversion" type="string">(build Aug 24 2017 11:22:49) complex            parallel </i>
  <i name="platform" type="string">LinuxIFC </i>
  <i name="date" type="string">2023 12 25 </i>
  <i name="time" type="string">13:07:56 </i>
 </generator>
 <incar>
  <i type="string" name="PREC">accurate</i>
  <i type="string" name="ALGO"> Normal</i>
  <i type="int" name="NELM">   100</i>
  <i type="int" name="IBRION">     8</i>
  <i name="EDIFF">      0.00000001</i>
  <i name="SYMPREC">      0.00000001</i>
  <i name="ENCUT">    520.00000000</i>
  <i type="logical" name="LREAL"> F  </i>
  <i type="int" name="ISMEAR">     0</i>
  <i name="SIGMA">      0.01000000</i>
  <i type="logical" name="LWAVE"> F  </i>
  <v type="int" name="KPOINT_BSE">    -1     0     0     0</v>
  <i type="int" name="NELM">   100</i>
  <i type="logical" name="LPEAD"> T  </i>
  <i type="logical" name="LEPSILON"> T  </i>
 </incar>
 <structure name="primitive_cell" >
  <crystal>
   <varray name="basis" >
    <v>       2.00566128      -1.15796908       6.54587780 </v>
    <v>       0.00000000       2.31593816       6.54587780 </v>
    <v>      -2.00566128      -1.15796908       6.54587780 </v>
   </varray>
   <i name="volume">     91.21656155 </i>
   <varray name="rec_basis" >
    <v>       0.24929434      -0.14393015       0.05092263 </v>
    <v>      -0.00000000       0.28786031       0.05092263 </v>
    <v>      -0.24929434      -0.14393015       0.05092263 </v>
   </varray>
  </crystal>
  <varray name="positions" >
   <v>       0.00024112       0.00024112       0.00024112 </v>
   <v>       0.37473110       0.37473110       0.37473102 </v>
   <v>      -0.12484417      -0.12484425      -0.12484425 </v>
   <v>       0.49987109       0.49987109       0.49987101 </v>
  </varray>
 </structure>
 <varray name="primitive_index" >
  <v type="int" >        1 </v>
  <v type="int" >        4 </v>
  <v type="int" >        3 </v>
  <v type="int" >        2 </v>
 </varray>
 <kpoints>
  <generation param="Gamma">
   <v type="int" name="divisions">      10       10       10 </v>
   <v name="usershift">      0.00000000       0.00000000       0.00000000 </v>
   <v name="genvec1">      0.10000000      -0.00000000      -0.00000000 </v>
   <v name="genvec2">     -0.00000000       0.10000000      -0.00000000 </v>
   <v name="genvec3">     -0.00000000      -0.00000000       0.10000000 </v>
   <v name="shift">      0.00000000       0.00000000       0.00000000 </v>
  </generation>
  <varray name="kpointlist" >
   <v>       0.00000000       0.00000000       0.00000000 </v>
   <v>       0.10000000      -0.00000000       0.00000000 </v>
   <v>       0.20000000      -0.00000000       0.00000000 </v>
   <v>       0.30000000      -0.00000000      -0.00000000 </v>
   <v>       0.40000000      -0.00000000       0.00000000 </v>
   <v>       0.50000000       0.00000000       0.00000000 </v>
   <v>      -0.00000000       0.10000000      -0.00000000 </v>
   <v>       0.10000000       0.10000000       0.00000000 </v>
   <v>       0.20000000       0.10000000       0.00000000 </v>
   <v>       0.30000000       0.10000000      -0.00000000 </v>
   <v>       0.40000000       0.10000000       0.00000000 </v>
   <v>       0.50000000       0.10000000       0.00000000 </v>
   <v>      -0.40000000       0.10000000      -0.00000000 </v>
   <v>      -0.30000000       0.10000000       0.00000000 </v>
   <v>      -0.20000000       0.10000000      -0.00000000 </v>
   <v>      -0.10000000       0.10000000      -0.00000000 </v>
   <v>      -0.00000000       0.20000000      -0.00000000 </v>
   <v>       0.10000000       0.20000000      -0.00000000 </v>
   <v>       0.20000000       0.20000000      -0.00000000 </v>
   <v>       0.30000000       0.20000000      -0.00000000 </v>
   <v>       0.40000000       0.20000000       0.00000000 </v>
   <v>       0.50000000       0.20000000       0.00000000 </v>
   <v>      -0.40000000       0.20000000      -0.00000000 </v>
   <v>      -0.30000000       0.20000000       0.00000000 </v>
   <v>      -0.20000000       0.20000000      -0.00000000 </v>
   <v>      -0.10000000       0.20000000       0.00000000 </v>
   <v>      -0.00000000       0.30000000      -0.00000000 </v>
   <v>       0.10000000       0.30000000      -0.00000000 </v>
   <v>       0.20000000       0.30000000       0.00000000 </v>
   <v>       0.30000000       0.30000000      -0.00000000 </v>
   <v>       0.40000000       0.30000000       0.00000000 </v>
   <v>       0.50000000       0.30000000      -0.00000000 </v>
   <v>      -0.40000000       0.30000000      -0.00000000 </v>
   <v>      -0.30000000       0.30000000      -0.00000000 </v>
   <v>      -0.20000000       0.30000000      -0.00000000 </v>
   <v>      -0.10000000       0.30000000      -0.00000000 </v>
   <v>      -0.00000000       0.40000000      -0.00000000 </v>
   <v>       0.10000000       0.40000000      -0.00000000 </v>
   <v>       0.20000000       0.40000000       0.00000000 </v>
   <v>       0.30000000       0.40000000      -0.00000000 </v>
   <v>       0.40000000       0.40000000      -0.00000000 </v>
   <v>       0.50000000       0.40000000      -0.00000000 </v>
   <v>      -0.40000000       0.40000000      -0.00000000 </v>
   <v>      -0.30000000       0.40000000       0.00000000 </v>
   <v>      -0.20000000       0.40000000      -0.00000000 </v>
   <v>      -0.10000000       0.40000000      -0.00000000 </v>
   <v>       0.00000000       0.50000000       0.00000000 </v>
   <v>       0.10000000       0.50000000      -0.00000000 </v>
   <v>       0.20000000       0.50000000      -0.00000000 </v>
   <v>       0.30000000       0.50000000      -0.00000000 </v>
   <v>       0.40000000       0.50000000       0.00000000 </v>
   <v>       0.50000000       0.50000000       0.00000000 </v>
   <v>       0.00000000      -0.00000000       0.10000000 </v>
   <v>       0.10000000      -0.00000000       0.10000000 </v>
   <v>       0.20000000      -0.00000000       0.10000000 </v>
   <v>       0.30000000      -0.00000000       0.10000000 </v>
   <v>       0.40000000      -0.00000000       0.10000000 </v>
   <v>       0.50000000      -0.00000000       0.10000000 </v>
   <v>      -0.40000000       0.00000000       0.10000000 </v>
   <v>      -0.30000000      -0.00000000       0.10000000 </v>
   <v>      -0.20000000      -0.00000000       0.10000000 </v>
   <v>      -0.10000000      -0.00000000       0.10000000 </v>
   <v>       0.00000000       0.10000000       0.10000000 </v>
   <v>       0.10000000       0.10000000       0.10000000 </v>
   <v>       0.20000000       0.10000000       0.10000000 </v>
   <v>       0.30000000       0.10000000       0.10000000 </v>
   <v>       0.40000000       0.10000000       0.10000000 </v>
   <v>       0.50000000       0.10000000       0.10000000 </v>
   <v>      -0.40000000       0.10000000       0.10000000 </v>
   <v>      -0.30000000       0.10000000       0.10000000 </v>
   <v>      -0.20000000       0.10000000       0.10000000 </v>
   <v>      -0.10000000       0.10000000       0.10000000 </v>
   <v>      -0.00000000       0.20000000       0.10000000 </v>
   <v>       0.10000000       0.20000000       0.10000000 </v>
   <v>       0.20000000       0.20000000       0.10000000 </v>
   <v>       0.30000000       0.20000000       0.10000000 </v>
   <v>       0.40000000       0.20000000       0.10000000 </v>
   <v>       0.50000000       0.20000000       0.10000000 </v>
   <v>      -0.40000000       0.20000000       0.10000000 </v>
   <v>      -0.30000000       0.20000000       0.10000000 </v>
   <v>      -0.20000000       0.20000000       0.10000000 </v>
   <v>      -0.10000000       0.20000000       0.10000000 </v>
   <v>      -0.00000000       0.30000000       0.10000000 </v>
   <v>       0.10000000       0.30000000       0.10000000 </v>
   <v>       0.20000000       0.30000000       0.10000000 </v>
   <v>       0.30000000       0.30000000       0.10000000 </v>
   <v>       0.40000000       0.30000000       0.10000000 </v>
   <v>       0.50000000       0.30000000       0.10000000 </v>
   <v>      -0.40000000       0.30000000       0.10000000 </v>
   <v>      -0.30000000       0.30000000       0.10000000 </v>
   <v>      -0.20000000       0.30000000       0.10000000 </v>
   <v>      -0.10000000       0.30000000       0.10000000 </v>
   <v>      -0.00000000       0.40000000       0.10000000 </v>
   <v>       0.10000000       0.40000000       0.10000000 </v>
   <v>       0.20000000       0.40000000       0.10000000 </v>
   <v>       0.30000000       0.40000000       0.10000000 </v>
   <v>       0.40000000       0.40000000       0.10000000 </v>
   <v>       0.50000000       0.40000000       0.10000000 </v>
   <v>      -0.40000000       0.40000000       0.10000000 </v>
   <v>      -0.30000000       0.40000000       0.10000000 </v>
   <v>      -0.20000000       0.40000000       0.10000000 </v>
   <v>      -0.10000000       0.40000000       0.10000000 </v>
   <v>      -0.00000000       0.50000000       0.10000000 </v>
   <v>       0.10000000       0.50000000       0.10000000 </v>
   <v>       0.20000000       0.50000000       0.10000000 </v>
   <v>       0.30000000       0.50000000       0.10000000 </v>
   <v>       0.40000000       0.50000000       0.10000000 </v>
   <v>       0.50000000       0.50000000       0.10000000 </v>
   <v>      -0.40000000       0.50000000       0.10000000 </v>
   <v>      -0.30000000       0.50000000       0.10000000 </v>
   <v>      -0.20000000       0.50000000       0.10000000 </v>
   <v>      -0.10000000       0.50000000       0.10000000 </v>
   <v>       0.00000000      -0.40000000       0.10000000 </v>
   <v>       0.10000000      -0.40000000       0.10000000 </v>
   <v>       0.20000000      -0.40000000       0.10000000 </v>
   <v>       0.30000000      -0.40000000       0.10000000 </v>
   <v>       0.40000000      -0.40000000       0.10000000 </v>
   <v>       0.50000000      -0.40000000       0.10000000 </v>
   <v>      -0.40000000      -0.40000000       0.10000000 </v>
   <v>      -0.30000000      -0.40000000       0.10000000 </v>
   <v>      -0.20000000      -0.40000000       0.10000000 </v>
   <v>      -0.10000000      -0.40000000       0.10000000 </v>
   <v>       0.00000000      -0.30000000       0.10000000 </v>
   <v>       0.10000000      -0.30000000       0.10000000 </v>
   <v>       0.20000000      -0.30000000       0.10000000 </v>
   <v>       0.30000000      -0.30000000       0.10000000 </v>
   <v>       0.40000000      -0.30000000       0.10000000 </v>
   <v>       0.50000000      -0.30000000       0.10000000 </v>
   <v>      -0.40000000      -0.30000000       0.10000000 </v>
   <v>      -0.30000000      -0.30000000       0.10000000 </v>
   <v>      -0.20000000      -0.30000000       0.10000000 </v>
   <v>      -0.10000000      -0.30000000       0.10000000 </v>
   <v>      -0.00000000      -0.20000000       0.10000000 </v>
   <v>       0.10000000      -0.20000000       0.10000000 </v>
   <v>       0.20000000      -0.20000000       0.10000000 </v>
   <v>       0.30000000      -0.20000000       0.10000000 </v>
   <v>       0.40000000      -0.20000000       0.10000000 </v>
   <v>       0.50000000      -0.20000000       0.10000000 </v>
   <v>      -0.40000000      -0.20000000       0.10000000 </v>
   <v>      -0.30000000      -0.20000000       0.10000000 </v>
   <v>      -0.20000000      -0.20000000       0.10000000 </v>
   <v>      -0.10000000      -0.20000000       0.10000000 </v>
   <v>       0.00000000      -0.10000000       0.10000000 </v>
   <v>       0.10000000      -0.10000000       0.10000000 </v>
   <v>       0.20000000      -0.10000000       0.10000000 </v>
   <v>       0.30000000      -0.10000000       0.10000000 </v>
   <v>       0.40000000      -0.10000000       0.10000000 </v>
   <v>       0.50000000      -0.10000000       0.10000000 </v>
   <v>      -0.40000000      -0.10000000       0.10000000 </v>
   <v>      -0.30000000      -0.10000000       0.10000000 </v>
   <v>      -0.20000000      -0.10000000       0.10000000 </v>
   <v>      -0.10000000      -0.10000000       0.10000000 </v>
   <v>       0.00000000      -0.00000000       0.20000000 </v>
   <v>       0.10000000      -0.00000000       0.20000000 </v>
   <v>       0.20000000      -0.00000000       0.20000000 </v>
   <v>       0.30000000       0.00000000       0.20000000 </v>
   <v>       0.40000000       0.00000000       0.20000000 </v>
   <v>       0.50000000       0.00000000       0.20000000 </v>
   <v>      -0.40000000      -0.00000000       0.20000000 </v>
   <v>      -0.30000000      -0.00000000       0.20000000 </v>
   <v>      -0.20000000      -0.00000000       0.20000000 </v>
   <v>      -0.10000000      -0.00000000       0.20000000 </v>
   <v>      -0.00000000       0.10000000       0.20000000 </v>
   <v>       0.10000000       0.10000000       0.20000000 </v>
   <v>       0.20000000       0.10000000       0.20000000 </v>
   <v>       0.30000000       0.10000000       0.20000000 </v>
   <v>       0.40000000       0.10000000       0.20000000 </v>
   <v>       0.50000000       0.10000000       0.20000000 </v>
   <v>      -0.40000000       0.10000000       0.20000000 </v>
   <v>      -0.30000000       0.10000000       0.20000000 </v>
   <v>      -0.20000000       0.10000000       0.20000000 </v>
   <v>      -0.10000000       0.10000000       0.20000000 </v>
   <v>      -0.00000000       0.20000000       0.20000000 </v>
   <v>       0.10000000       0.20000000       0.20000000 </v>
   <v>       0.20000000       0.20000000       0.20000000 </v>
   <v>       0.30000000       0.20000000       0.20000000 </v>
   <v>       0.40000000       0.20000000       0.20000000 </v>
   <v>       0.50000000       0.20000000       0.20000000 </v>
   <v>      -0.40000000       0.20000000       0.20000000 </v>
   <v>      -0.30000000       0.20000000       0.20000000 </v>
   <v>      -0.20000000       0.20000000       0.20000000 </v>
   <v>      -0.10000000       0.20000000       0.20000000 </v>
   <v>       0.00000000       0.30000000       0.20000000 </v>
   <v>       0.10000000       0.30000000       0.20000000 </v>
   <v>       0.20000000       0.30000000       0.20000000 </v>
   <v>       0.30000000       0.30000000       0.20000000 </v>
   <v>       0.40000000       0.30000000       0.20000000 </v>
   <v>       0.50000000       0.30000000       0.20000000 </v>
   <v>      -0.40000000       0.30000000       0.20000000 </v>
   <v>      -0.30000000       0.30000000       0.20000000 </v>
   <v>      -0.20000000       0.30000000       0.20000000 </v>
   <v>      -0.10000000       0.30000000       0.20000000 </v>
   <v>       0.00000000       0.40000000       0.20000000 </v>
   <v>       0.10000000       0.40000000       0.20000000 </v>
   <v>       0.20000000       0.40000000       0.20000000 </v>
   <v>       0.30000000       0.40000000       0.20000000 </v>
   <v>       0.40000000       0.40000000       0.20000000 </v>
   <v>       0.50000000       0.40000000       0.20000000 </v>
   <v>      -0.40000000       0.40000000       0.20000000 </v>
   <v>      -0.30000000       0.40000000       0.20000000 </v>
   <v>      -0.20000000       0.40000000       0.20000000 </v>
   <v>      -0.10000000       0.40000000       0.20000000 </v>
   <v>      -0.00000000       0.50000000       0.20000000 </v>
   <v>       0.10000000       0.50000000       0.20000000 </v>
   <v>       0.20000000       0.50000000       0.20000000 </v>
   <v>       0.30000000       0.50000000       0.20000000 </v>
   <v>       0.40000000       0.50000000       0.20000000 </v>
   <v>       0.50000000       0.50000000       0.20000000 </v>
   <v>      -0.40000000       0.50000000       0.20000000 </v>
   <v>      -0.30000000       0.50000000       0.20000000 </v>
   <v>      -0.20000000       0.50000000       0.20000000 </v>
   <v>      -0.10000000       0.50000000       0.20000000 </v>
   <v>       0.00000000      -0.40000000       0.20000000 </v>
   <v>       0.10000000      -0.40000000       0.20000000 </v>
   <v>       0.20000000      -0.40000000       0.20000000 </v>
   <v>       0.30000000      -0.40000000       0.20000000 </v>
   <v>       0.40000000      -0.40000000       0.20000000 </v>
   <v>       0.50000000      -0.40000000       0.20000000 </v>
   <v>      -0.40000000      -0.40000000       0.20000000 </v>
   <v>      -0.30000000      -0.40000000       0.20000000 </v>
   <v>      -0.20000000      -0.40000000       0.20000000 </v>
   <v>      -0.10000000      -0.40000000       0.20000000 </v>
   <v>       0.00000000      -0.30000000       0.20000000 </v>
   <v>       0.10000000      -0.30000000       0.20000000 </v>
   <v>       0.20000000      -0.30000000       0.20000000 </v>
   <v>       0.30000000      -0.30000000       0.20000000 </v>
   <v>       0.40000000      -0.30000000       0.20000000 </v>
   <v>       0.50000000      -0.30000000       0.20000000 </v>
   <v>      -0.40000000      -0.30000000       0.20000000 </v>
   <v>      -0.30000000      -0.30000000       0.20000000 </v>
   <v>      -0.20000000      -0.30000000       0.20000000 </v>
   <v>      -0.10000000      -0.30000000       0.20000000 </v>
   <v>       0.00000000      -0.20000000       0.20000000 </v>
   <v>       0.10000000      -0.20000000       0.20000000 </v>
   <v>       0.20000000      -0.20000000       0.20000000 </v>
   <v>       0.30000000      -0.20000000       0.20000000 </v>
   <v>       0.40000000      -0.20000000       0.20000000 </v>
   <v>       0.50000000      -0.20000000       0.20000000 </v>
   <v>      -0.40000000      -0.20000000       0.20000000 </v>
   <v>      -0.30000000      -0.20000000       0.20000000 </v>
   <v>      -0.20000000      -0.20000000       0.20000000 </v>
   <v>      -0.10000000      -0.20000000       0.20000000 </v>
   <v>       0.00000000      -0.10000000       0.20000000 </v>
   <v>       0.10000000      -0.10000000       0.20000000 </v>
   <v>       0.20000000      -0.10000000       0.20000000 </v>
   <v>       0.30000000      -0.10000000       0.20000000 </v>
   <v>       0.40000000      -0.10000000       0.20000000 </v>
   <v>       0.50000000      -0.10000000       0.20000000 </v>
   <v>      -0.40000000      -0.10000000       0.20000000 </v>
   <v>      -0.30000000      -0.10000000       0.20000000 </v>
   <v>      -0.20000000      -0.10000000       0.20000000 </v>
   <v>      -0.10000000      -0.10000000       0.20000000 </v>
   <v>      -0.00000000      -0.00000000       0.30000000 </v>
   <v>       0.10000000      -0.00000000       0.30000000 </v>
   <v>       0.20000000      -0.00000000       0.30000000 </v>
   <v>       0.30000000      -0.00000000       0.30000000 </v>
   <v>       0.40000000      -0.00000000       0.30000000 </v>
   <v>       0.50000000      -0.00000000       0.30000000 </v>
   <v>      -0.40000000      -0.00000000       0.30000000 </v>
   <v>      -0.30000000      -0.00000000       0.30000000 </v>
   <v>      -0.20000000      -0.00000000       0.30000000 </v>
   <v>      -0.10000000      -0.00000000       0.30000000 </v>
   <v>      -0.00000000       0.10000000       0.30000000 </v>
   <v>       0.10000000       0.10000000       0.30000000 </v>
   <v>       0.20000000       0.10000000       0.30000000 </v>
   <v>       0.30000000       0.10000000       0.30000000 </v>
   <v>       0.40000000       0.10000000       0.30000000 </v>
   <v>       0.50000000       0.10000000       0.30000000 </v>
   <v>      -0.40000000       0.10000000       0.30000000 </v>
   <v>      -0.30000000       0.10000000       0.30000000 </v>
   <v>      -0.20000000       0.10000000       0.30000000 </v>
   <v>      -0.10000000       0.10000000       0.30000000 </v>
   <v>       0.00000000       0.20000000       0.30000000 </v>
   <v>       0.10000000       0.20000000       0.30000000 </v>
   <v>       0.20000000       0.20000000       0.30000000 </v>
   <v>       0.30000000       0.20000000       0.30000000 </v>
   <v>       0.40000000       0.20000000       0.30000000 </v>
   <v>       0.50000000       0.20000000       0.30000000 </v>
   <v>      -0.40000000       0.20000000       0.30000000 </v>
   <v>      -0.30000000       0.20000000       0.30000000 </v>
   <v>      -0.20000000       0.20000000       0.30000000 </v>
   <v>      -0.10000000       0.20000000       0.30000000 </v>
   <v>      -0.00000000       0.30000000       0.30000000 </v>
   <v>       0.10000000       0.30000000       0.30000000 </v>
   <v>       0.20000000       0.30000000       0.30000000 </v>
   <v>       0.30000000       0.30000000       0.30000000 </v>
   <v>       0.40000000       0.30000000       0.30000000 </v>
   <v>       0.50000000       0.30000000       0.30000000 </v>
   <v>      -0.40000000       0.30000000       0.30000000 </v>
   <v>      -0.30000000       0.30000000       0.30000000 </v>
   <v>      -0.20000000       0.30000000       0.30000000 </v>
   <v>      -0.10000000       0.30000000       0.30000000 </v>
   <v>      -0.00000000       0.40000000       0.30000000 </v>
   <v>       0.10000000       0.40000000       0.30000000 </v>
   <v>       0.20000000       0.40000000       0.30000000 </v>
   <v>       0.30000000       0.40000000       0.30000000 </v>
   <v>       0.40000000       0.40000000       0.30000000 </v>
   <v>       0.50000000       0.40000000       0.30000000 </v>
   <v>      -0.40000000       0.40000000       0.30000000 </v>
   <v>      -0.30000000       0.40000000       0.30000000 </v>
   <v>      -0.20000000       0.40000000       0.30000000 </v>
   <v>      -0.10000000       0.40000000       0.30000000 </v>
   <v>      -0.00000000       0.50000000       0.30000000 </v>
   <v>       0.10000000       0.50000000       0.30000000 </v>
   <v>       0.20000000       0.50000000       0.30000000 </v>
   <v>       0.30000000       0.50000000       0.30000000 </v>
   <v>       0.40000000       0.50000000       0.30000000 </v>
   <v>       0.50000000       0.50000000       0.30000000 </v>
   <v>      -0.40000000       0.50000000       0.30000000 </v>
   <v>      -0.30000000       0.50000000       0.30000000 </v>
   <v>      -0.20000000       0.50000000       0.30000000 </v>
   <v>      -0.10000000       0.50000000       0.30000000 </v>
   <v>      -0.00000000      -0.40000000       0.30000000 </v>
   <v>       0.10000000      -0.40000000       0.30000000 </v>
   <v>       0.20000000      -0.40000000       0.30000000 </v>
   <v>       0.30000000      -0.40000000       0.30000000 </v>
   <v>       0.40000000      -0.40000000       0.30000000 </v>
   <v>       0.50000000      -0.40000000       0.30000000 </v>
   <v>      -0.40000000      -0.40000000       0.30000000 </v>
   <v>      -0.30000000      -0.40000000       0.30000000 </v>
   <v>      -0.20000000      -0.40000000       0.30000000 </v>
   <v>      -0.10000000      -0.40000000       0.30000000 </v>
   <v>       0.00000000      -0.30000000       0.30000000 </v>
   <v>       0.10000000      -0.30000000       0.30000000 </v>
   <v>       0.20000000      -0.30000000       0.30000000 </v>
   <v>       0.30000000      -0.30000000       0.30000000 </v>
   <v>       0.40000000      -0.30000000       0.30000000 </v>
   <v>       0.50000000      -0.30000000       0.30000000 </v>
   <v>      -0.40000000      -0.30000000       0.30000000 </v>
   <v>      -0.30000000      -0.30000000       0.30000000 </v>
   <v>      -0.20000000      -0.30000000       0.30000000 </v>
   <v>      -0.10000000      -0.30000000       0.30000000 </v>
   <v>       0.00000000      -0.20000000       0.30000000 </v>
   <v>       0.10000000      -0.20000000       0.30000000 </v>
   <v>       0.20000000      -0.20000000       0.30000000 </v>
   <v>       0.30000000      -0.20000000       0.30000000 </v>
   <v>       0.40000000      -0.20000000       0.30000000 </v>
   <v>       0.50000000      -0.20000000       0.30000000 </v>
   <v>      -0.40000000      -0.20000000       0.30000000 </v>
   <v>      -0.30000000      -0.20000000       0.30000000 </v>
   <v>      -0.20000000      -0.20000000       0.30000000 </v>
   <v>      -0.10000000      -0.20000000       0.30000000 </v>
   <v>      -0.00000000      -0.10000000       0.30000000 </v>
   <v>       0.10000000      -0.10000000       0.30000000 </v>
   <v>       0.20000000      -0.10000000       0.30000000 </v>
   <v>       0.30000000      -0.10000000       0.30000000 </v>
   <v>       0.40000000      -0.10000000       0.30000000 </v>
   <v>       0.50000000      -0.10000000       0.30000000 </v>
   <v>      -0.40000000      -0.10000000       0.30000000 </v>
   <v>      -0.30000000      -0.10000000       0.30000000 </v>
   <v>      -0.20000000      -0.10000000       0.30000000 </v>
   <v>      -0.10000000      -0.10000000       0.30000000 </v>
   <v>       0.00000000      -0.00000000       0.40000000 </v>
   <v>       0.10000000       0.00000000       0.40000000 </v>
   <v>       0.20000000       0.00000000       0.40000000 </v>
   <v>       0.30000000       0.00000000       0.40000000 </v>
   <v>       0.40000000      -0.00000000       0.40000000 </v>
   <v>       0.50000000       0.00000000       0.40000000 </v>
   <v>      -0.40000000      -0.00000000       0.40000000 </v>
   <v>      -0.30000000      -0.00000000       0.40000000 </v>
   <v>      -0.20000000      -0.00000000       0.40000000 </v>
   <v>      -0.10000000      -0.00000000       0.40000000 </v>
   <v>       0.00000000       0.10000000       0.40000000 </v>
   <v>       0.10000000       0.10000000       0.40000000 </v>
   <v>       0.20000000       0.10000000       0.40000000 </v>
   <v>       0.30000000       0.10000000       0.40000000 </v>
   <v>       0.40000000       0.10000000       0.40000000 </v>
   <v>       0.50000000       0.10000000       0.40000000 </v>
   <v>      -0.40000000       0.10000000       0.40000000 </v>
   <v>      -0.30000000       0.10000000       0.40000000 </v>
   <v>      -0.20000000       0.10000000       0.40000000 </v>
   <v>      -0.10000000       0.10000000       0.40000000 </v>
   <v>      -0.00000000       0.20000000       0.40000000 </v>
   <v>       0.10000000       0.20000000       0.40000000 </v>
   <v>       0.20000000       0.20000000       0.40000000 </v>
   <v>       0.30000000       0.20000000       0.40000000 </v>
   <v>       0.40000000       0.20000000       0.40000000 </v>
   <v>       0.50000000       0.20000000       0.40000000 </v>
   <v>      -0.40000000       0.20000000       0.40000000 </v>
   <v>      -0.30000000       0.20000000       0.40000000 </v>
   <v>      -0.20000000       0.20000000       0.40000000 </v>
   <v>      -0.10000000       0.20000000       0.40000000 </v>
   <v>      -0.00000000       0.30000000       0.40000000 </v>
   <v>       0.10000000       0.30000000       0.40000000 </v>
   <v>       0.20000000       0.30000000       0.40000000 </v>
   <v>       0.30000000       0.30000000       0.40000000 </v>
   <v>       0.40000000       0.30000000       0.40000000 </v>
   <v>       0.50000000       0.30000000       0.40000000 </v>
   <v>      -0.40000000       0.30000000       0.40000000 </v>
   <v>      -0.30000000       0.30000000       0.40000000 </v>
   <v>      -0.20000000       0.30000000       0.40000000 </v>
   <v>      -0.10000000       0.30000000       0.40000000 </v>
   <v>      -0.00000000       0.40000000       0.40000000 </v>
   <v>       0.10000000       0.40000000       0.40000000 </v>
   <v>       0.20000000       0.40000000       0.40000000 </v>
   <v>       0.30000000       0.40000000       0.40000000 </v>
   <v>       0.40000000       0.40000000       0.40000000 </v>
   <v>       0.50000000       0.40000000       0.40000000 </v>
   <v>      -0.40000000       0.40000000       0.40000000 </v>
   <v>      -0.30000000       0.40000000       0.40000000 </v>
   <v>      -0.20000000       0.40000000       0.40000000 </v>
   <v>      -0.10000000       0.40000000       0.40000000 </v>
   <v>       0.00000000       0.50000000       0.40000000 </v>
   <v>       0.10000000       0.50000000       0.40000000 </v>
   <v>       0.20000000       0.50000000       0.40000000 </v>
   <v>       0.30000000       0.50000000       0.40000000 </v>
   <v>       0.40000000       0.50000000       0.40000000 </v>
   <v>       0.50000000       0.50000000       0.40000000 </v>
   <v>      -0.40000000       0.50000000       0.40000000 </v>
   <v>      -0.30000000       0.50000000       0.40000000 </v>
   <v>      -0.20000000       0.50000000       0.40000000 </v>
   <v>      -0.10000000       0.50000000       0.40000000 </v>
   <v>       0.00000000      -0.40000000       0.40000000 </v>
   <v>       0.10000000      -0.40000000       0.40000000 </v>
   <v>       0.20000000      -0.40000000       0.40000000 </v>
   <v>       0.30000000      -0.40000000       0.40000000 </v>
   <v>       0.40000000      -0.40000000       0.40000000 </v>
   <v>       0.50000000      -0.40000000       0.40000000 </v>
   <v>      -0.40000000      -0.40000000       0.40000000 </v>
   <v>      -0.30000000      -0.40000000       0.40000000 </v>
   <v>      -0.20000000      -0.40000000       0.40000000 </v>
   <v>      -0.10000000      -0.40000000       0.40000000 </v>
   <v>       0.00000000      -0.30000000       0.40000000 </v>
   <v>       0.10000000      -0.30000000       0.40000000 </v>
   <v>       0.20000000      -0.30000000       0.40000000 </v>
   <v>       0.30000000      -0.30000000       0.40000000 </v>
   <v>       0.40000000      -0.30000000       0.40000000 </v>
   <v>       0.50000000      -0.30000000       0.40000000 </v>
   <v>      -0.40000000      -0.30000000       0.40000000 </v>
   <v>      -0.30000000      -0.30000000       0.40000000 </v>
   <v>      -0.20000000      -0.30000000       0.40000000 </v>
   <v>      -0.10000000      -0.30000000       0.40000000 </v>
   <v>       0.00000000      -0.20000000       0.40000000 </v>
   <v>       0.10000000      -0.20000000       0.40000000 </v>
   <v>       0.20000000      -0.20000000       0.40000000 </v>
   <v>       0.30000000      -0.20000000       0.40000000 </v>
   <v>       0.40000000      -0.20000000       0.40000000 </v>
   <v>       0.50000000      -0.20000000       0.40000000 </v>
   <v>      -0.40000000      -0.20000000       0.40000000 </v>
   <v>      -0.30000000      -0.20000000       0.40000000 </v>
   <v>      -0.20000000      -0.20000000       0.40000000 </v>
   <v>      -0.10000000      -0.20000000       0.40000000 </v>
   <v>      -0.00000000      -0.10000000       0.40000000 </v>
   <v>       0.10000000      -0.10000000       0.40000000 </v>
   <v>       0.20000000      -0.10000000       0.40000000 </v>
   <v>       0.30000000      -0.10000000       0.40000000 </v>
   <v>       0.40000000      -0.10000000       0.40000000 </v>
   <v>       0.50000000      -0.10000000       0.40000000 </v>
   <v>      -0.40000000      -0.10000000       0.40000000 </v>
   <v>      -0.30000000      -0.10000000       0.40000000 </v>
   <v>      -0.20000000      -0.10000000       0.40000000 </v>
   <v>      -0.10000000      -0.10000000       0.40000000 </v>
   <v>      -0.00000000       0.00000000       0.50000000 </v>
   <v>       0.10000000       0.00000000       0.50000000 </v>
   <v>       0.20000000      -0.00000000       0.50000000 </v>
   <v>       0.30000000      -0.00000000       0.50000000 </v>
   <v>       0.40000000       0.00000000       0.50000000 </v>
   <v>       0.50000000       0.00000000       0.50000000 </v>
   <v>       0.00000000       0.10000000       0.50000000 </v>
   <v>       0.10000000       0.10000000       0.50000000 </v>
   <v>       0.20000000       0.10000000       0.50000000 </v>
   <v>       0.30000000       0.10000000       0.50000000 </v>
   <v>       0.40000000       0.10000000       0.50000000 </v>
   <v>       0.50000000       0.10000000       0.50000000 </v>
   <v>      -0.40000000       0.10000000       0.50000000 </v>
   <v>      -0.30000000       0.10000000       0.50000000 </v>
   <v>      -0.20000000       0.10000000       0.50000000 </v>
   <v>      -0.10000000       0.10000000       0.50000000 </v>
   <v>      -0.00000000       0.20000000       0.50000000 </v>
   <v>       0.10000000       0.20000000       0.50000000 </v>
   <v>       0.20000000       0.20000000       0.50000000 </v>
   <v>       0.30000000       0.20000000       0.50000000 </v>
   <v>       0.40000000       0.20000000       0.50000000 </v>
   <v>       0.50000000       0.20000000       0.50000000 </v>
   <v>      -0.40000000       0.20000000       0.50000000 </v>
   <v>      -0.30000000       0.20000000       0.50000000 </v>
   <v>      -0.20000000       0.20000000       0.50000000 </v>
   <v>      -0.10000000       0.20000000       0.50000000 </v>
   <v>      -0.00000000       0.30000000       0.50000000 </v>
   <v>       0.10000000       0.30000000       0.50000000 </v>
   <v>       0.20000000       0.30000000       0.50000000 </v>
   <v>       0.30000000       0.30000000       0.50000000 </v>
   <v>       0.40000000       0.30000000       0.50000000 </v>
   <v>       0.50000000       0.30000000       0.50000000 </v>
   <v>      -0.40000000       0.30000000       0.50000000 </v>
   <v>      -0.30000000       0.30000000       0.50000000 </v>
   <v>      -0.20000000       0.30000000       0.50000000 </v>
   <v>      -0.10000000       0.30000000       0.50000000 </v>
   <v>      -0.00000000       0.40000000       0.50000000 </v>
   <v>       0.10000000       0.40000000       0.50000000 </v>
   <v>       0.20000000       0.40000000       0.50000000 </v>
   <v>       0.30000000       0.40000000       0.50000000 </v>
   <v>       0.40000000       0.40000000       0.50000000 </v>
   <v>       0.50000000       0.40000000       0.50000000 </v>
   <v>      -0.40000000       0.40000000       0.50000000 </v>
   <v>      -0.30000000       0.40000000       0.50000000 </v>
   <v>      -0.20000000       0.40000000       0.50000000 </v>
   <v>      -0.10000000       0.40000000       0.50000000 </v>
   <v>       0.00000000       0.50000000       0.50000000 </v>
   <v>       0.10000000       0.50000000       0.50000000 </v>
   <v>       0.20000000       0.50000000       0.50000000 </v>
   <v>       0.30000000       0.50000000       0.50000000 </v>
   <v>       0.40000000       0.50000000       0.50000000 </v>
   <v>       0.50000000       0.50000000       0.50000000 </v>
  </varray>
  <varray name="weights" >
   <v>       0.00100000 </v>
   <v>       0.00200000 </v>
   <v>       0.00200000 </v>
   <v>       0.00200000 </v>
   <v>       0.00200000 </v>
   <v>       0.00100000 </v>
   <v>       0.00200000 </v>
   <v>       0.00200000 </v>
   <v>       0.00200000 </v>
   <v>       0.00200000 </v>
   <v>       0.00200000 </v>
   <v>       0.00200000 </v>
   <v>       0.00200000 </v>
   <v>       0.00200000 </v>
   <v>       0.00200000 </v>
   <v>       0.00200000 </v>
   <v>       0.00200000 </v>
   <v>       0.00200000 </v>
   <v>       0.00200000 </v>
   <v>       0.00200000 </v>
   <v>       0.00200000 </v>
   <v>       0.00200000 </v>
   <v>       0.00200000 </v>
   <v>       0.00200000 </v>
   <v>       0.00200000 </v>
   <v>       0.00200000 </v>
   <v>       0.00200000 </v>
   <v>       0.00200000 </v>
   <v>       0.00200000 </v>
   <v>       0.00200000 </v>
   <v>       0.00200000 </v>
   <v>       0.00200000 </v>
   <v>       0.00200000 </v>
   <v>       0.00200000 </v>
   <v>       0.00200000 </v>
   <v>       0.00200000 </v>
   <v>       0.00200000 </v>
   <v>       0.00200000 </v>
   <v>       0.00200000 </v>
   <v>       0.00200000 </v>
   <v>       0.00200000 </v>
   <v>       0.00200000 </v>
   <v>       0.00200000 </v>
   <v>       0.00200000 </v>
   <v>       0.00200000 </v>
   <v>       0.00200000 </v>
   <v>       0.00100000 </v>
   <v>       0.00200000 </v>
   <v>       0.00200000 </v>
   <v>       0.00200000 </v>
   <v>       0.00200000 </v>
   <v>       0.00100000 </v>
   <v>       0.00200000 </v>
   <v>       0.00200000 </v>
   <v>       0.00200000 </v>
   <v>       0.00200000 </v>
   <v>       0.00200000 </v>
   <v>       0.00200000 </v>
   <v>       0.00200000 </v>
   <v>       0.00200000 </v>
   <v>       0.00200000 </v>
   <v>       0.00200000 </v>
   <v>       0.00200000 </v>
   <v>       0.00200000 </v>
   <v>       0.00200000 </v>
   <v>       0.00200000 </v>
   <v>       0.00200000 </v>
   <v>       0.00200000 </v>
   <v>       0.00200000 </v>
   <v>       0.00200000 </v>
   <v>       0.00200000 </v>
   <v>       0.00200000 </v>
   <v>       0.00200000 </v>
   <v>       0.00200000 </v>
   <v>       0.00200000 </v>
   <v>       0.00200000 </v>
   <v>       0.00200000 </v>
   <v>       0.00200000 </v>
   <v>       0.00200000 </v>
   <v>       0.00200000 </v>
   <v>       0.00200000 </v>
   <v>       0.00200000 </v>
   <v>       0.00200000 </v>
   <v>       0.00200000 </v>
   <v>       0.00200000 </v>
   <v>       0.00200000 </v>
   <v>       0.00200000 </v>
   <v>       0.00200000 </v>
   <v>       0.00200000 </v>
   <v>       0.00200000 </v>
   <v>       0.00200000 </v>
   <v>       0.00200000 </v>
   <v>       0.00200000 </v>
   <v>       0.00200000 </v>
   <v>       0.00200000 </v>
   <v>       0.00200000 </v>
   <v>       0.00200000 </v>
   <v>       0.00200000 </v>
   <v>       0.00200000 </v>
   <v>       0.00200000 </v>
   <v>       0.00200000 </v>
   <v>       0.00200000 </v>
   <v>       0.00200000 </v>
   <v>       0.00200000 </v>
   <v>       0.00200000 </v>
   <v>       0.00200000 </v>
   <v>       0.00200000 </v>
   <v>       0.00200000 </v>
   <v>       0.00200000 </v>
   <v>       0.00200000 </v>
   <v>       0.00200000 </v>
   <v>       0.00200000 </v>
   <v>       0.00200000 </v>
   <v>       0.00200000 </v>
   <v>       0.00200000 </v>
   <v>       0.00200000 </v>
   <v>       0.00200000 </v>
   <v>       0.00200000 </v>
   <v>       0.00200000 </v>
   <v>       0.00200000 </v>
   <v>       0.00200000 </v>
   <v>       0.00200000 </v>
   <v>       0.00200000 </v>
   <v>       0.00200000 </v>
   <v>       0.00200000 </v>
   <v>       0.00200000 </v>
   <v>       0.00200000 </v>
   <v>       0.00200000 </v>
   <v>       0.00200000 </v>
   <v>       0.00200000 </v>
   <v>       0.00200000 </v>
   <v>       0.00200000 </v>
   <v>       0.00200000 </v>
   <v>       0.00200000 </v>
   <v>       0.00200000 </v>
   <v>       0.00200000 </v>
   <v>       0.00200000 </v>
   <v>       0.00200000 </v>
   <v>       0.00200000 </v>
   <v>       0.00200000 </v>
   <v>       0.00200000 </v>
   <v>       0.00200000 </v>
   <v>       0.00200000 </v>
   <v>       0.00200000 </v>
   <v>       0.00200000 </v>
   <v>       0.00200000 </v>
   <v>       0.00200000 </v>
   <v>       0.00200000 </v>
   <v>       0.00200000 </v>
   <v>       0.00200000 </v>
   <v>       0.00200000 </v>
   <v>       0.00200000 </v>
   <v>       0.00200000 </v>
   <v>       0.00200000 </v>
   <v>       0.00200000 </v>
   <v>       0.00200000 </v>
   <v>       0.00200000 </v>
   <v>       0.00200000 </v>
   <v>       0.00200000 </v>
   <v>       0.00200000 </v>
   <v>       0.00200000 </v>
   <v>       0.00200000 </v>
   <v>       0.00200000 </v>
   <v>       0.00200000 </v>
   <v>       0.00200000 </v>
   <v>       0.00200000 </v>
   <v>       0.00200000 </v>
   <v>       0.00200000 </v>
   <v>       0.00200000 </v>
   <v>       0.00200000 </v>
   <v>       0.00200000 </v>
   <v>       0.00200000 </v>
   <v>       0.00200000 </v>
   <v>       0.00200000 </v>
   <v>       0.00200000 </v>
   <v>       0.00200000 </v>
   <v>       0.00200000 </v>
   <v>       0.00200000 </v>
   <v>       0.00200000 </v>
   <v>       0.00200000 </v>
   <v>       0.00200000 </v>
   <v>       0.00200000 </v>
   <v>       0.00200000 </v>
   <v>       0.00200000 </v>
   <v>       0.00200000 </v>
   <v>       0.00200000 </v>
   <v>       0.00200000 </v>
   <v>       0.00200000 </v>
   <v>       0.00200000 </v>
   <v>       0.00200000 </v>
   <v>       0.00200000 </v>
   <v>       0.00200000 </v>
   <v>       0.00200000 </v>
   <v>       0.00200000 </v>
   <v>       0.00200000 </v>
   <v>       0.00200000 </v>
   <v>       0.00200000 </v>
   <v>       0.00200000 </v>
   <v>       0.00200000 </v>
   <v>       0.00200000 </v>
   <v>       0.00200000 </v>
   <v>       0.00200000 </v>
   <v>       0.00200000 </v>
   <v>       0.00200000 </v>
   <v>       0.00200000 </v>
   <v>       0.00200000 </v>
   <v>       0.00200000 </v>
   <v>       0.00200000 </v>
   <v>       0.00200000 </v>
   <v>       0.00200000 </v>
   <v>       0.00200000 </v>
   <v>       0.00200000 </v>
   <v>       0.00200000 </v>
   <v>       0.00200000 </v>
   <v>       0.00200000 </v>
   <v>       0.00200000 </v>
   <v>       0.00200000 </v>
   <v>       0.00200000 </v>
   <v>       0.00200000 </v>
   <v>       0.00200000 </v>
   <v>       0.00200000 </v>
   <v>       0.00200000 </v>
   <v>       0.00200000 </v>
   <v>       0.00200000 </v>
   <v>       0.00200000 </v>
   <v>       0.00200000 </v>
   <v>       0.00200000 </v>
   <v>       0.00200000 </v>
   <v>       0.00200000 </v>
   <v>       0.00200000 </v>
   <v>       0.00200000 </v>
   <v>       0.00200000 </v>
   <v>       0.00200000 </v>
   <v>       0.00200000 </v>
   <v>       0.00200000 </v>
   <v>       0.00200000 </v>
   <v>       0.00200000 </v>
   <v>       0.00200000 </v>
   <v>       0.00200000 </v>
   <v>       0.00200000 </v>
   <v>       0.00200000 </v>
   <v>       0.00200000 </v>
   <v>       0.00200000 </v>
   <v>       0.00200000 </v>
   <v>       0.00200000 </v>
   <v>       0.00200000 </v>
   <v>       0.00200000 </v>
   <v>       0.00200000 </v>
   <v>       0.00200000 </v>
   <v>       0.00200000 </v>
   <v>       0.00200000 </v>
   <v>       0.00200000 </v>
   <v>       0.00200000 </v>
   <v>       0.00200000 </v>
   <v>       0.00200000 </v>
   <v>       0.00200000 </v>
   <v>       0.00200000 </v>
   <v>       0.00200000 </v>
   <v>       0.00200000 </v>
   <v>       0.00200000 </v>
   <v>       0.00200000 </v>
   <v>       0.00200000 </v>
   <v>       0.00200000 </v>
   <v>       0.00200000 </v>
   <v>       0.00200000 </v>
   <v>       0.00200000 </v>
   <v>       0.00200000 </v>
   <v>       0.00200000 </v>
   <v>       0.00200000 </v>
   <v>       0.00200000 </v>
   <v>       0.00200000 </v>
   <v>       0.00200000 </v>
   <v>       0.00200000 </v>
   <v>       0.00200000 </v>
   <v>       0.00200000 </v>
   <v>       0.00200000 </v>
   <v>       0.00200000 </v>
   <v>       0.00200000 </v>
   <v>       0.00200000 </v>
   <v>       0.00200000 </v>
   <v>       0.00200000 </v>
   <v>       0.00200000 </v>
   <v>       0.00200000 </v>
   <v>       0.00200000 </v>
   <v>       0.00200000 </v>
   <v>       0.00200000 </v>
   <v>       0.00200000 </v>
   <v>       0.00200000 </v>
   <v>       0.00200000 </v>
   <v>       0.00200000 </v>
   <v>       0.00200000 </v>
   <v>       0.00200000 </v>
   <v>       0.00200000 </v>
   <v>       0.00200000 </v>
   <v>       0.00200000 </v>
   <v>       0.00200000 </v>
   <v>       0.00200000 </v>
   <v>       0.00200000 </v>
   <v>       0.00200000 </v>
   <v>       0.00200000 </v>
   <v>       0.00200000 </v>
   <v>       0.00200000 </v>
   <v>       0.00200000 </v>
   <v>       0.00200000 </v>
   <v>       0.00200000 </v>
   <v>       0.00200000 </v>
   <v>       0.00200000 </v>
   <v>       0.00200000 </v>
   <v>       0.00200000 </v>
   <v>       0.00200000 </v>
   <v>       0.00200000 </v>
   <v>       0.00200000 </v>
   <v>       0.00200000 </v>
   <v>       0.00200000 </v>
   <v>       0.00200000 </v>
   <v>       0.00200000 </v>
   <v>       0.00200000 </v>
   <v>       0.00200000 </v>
   <v>       0.00200000 </v>
   <v>       0.00200000 </v>
   <v>       0.00200000 </v>
   <v>       0.00200000 </v>
   <v>       0.00200000 </v>
   <v>       0.00200000 </v>
   <v>       0.00200000 </v>
   <v>       0.00200000 </v>
   <v>       0.00200000 </v>
   <v>       0.00200000 </v>
   <v>       0.00200000 </v>
   <v>       0.00200000 </v>
   <v>       0.00200000 </v>
   <v>       0.00200000 </v>
   <v>       0.00200000 </v>
   <v>       0.00200000 </v>
   <v>       0.00200000 </v>
   <v>       0.00200000 </v>
   <v>       0.00200000 </v>
   <v>       0.00200000 </v>
   <v>       0.00200000 </v>
   <v>       0.00200000 </v>
   <v>       0.00200000 </v>
   <v>       0.00200000 </v>
   <v>       0.00200000 </v>
   <v>       0.00200000 </v>
   <v>       0.00200000 </v>
   <v>       0.00200000 </v>
   <v>       0.00200000 </v>
   <v>       0.00200000 </v>
   <v>       0.00200000 </v>
   <v>       0.00200000 </v>
   <v>       0.00200000 </v>
   <v>       0.00200000 </v>
   <v>       0.00200000 </v>
   <v>       0.00200000 </v>
   <v>       0.00200000 </v>
   <v>       0.00200000 </v>
   <v>       0.00200000 </v>
   <v>       0.00200000 </v>
   <v>       0.00200000 </v>
   <v>       0.00200000 </v>
   <v>       0.00200000 </v>
   <v>       0.00200000 </v>
   <v>       0.00200000 </v>
   <v>       0.00200000 </v>
   <v>       0.00200000 </v>
   <v>       0.00200000 </v>
   <v>       0.00200000 </v>
   <v>       0.00200000 </v>
   <v>       0.00200000 </v>
   <v>       0.00200000 </v>
   <v>       0.00200000 </v>
   <v>       0.00200000 </v>
   <v>       0.00200000 </v>
   <v>       0.00200000 </v>
   <v>       0.00200000 </v>
   <v>       0.00200000 </v>
   <v>       0.00200000 </v>
   <v>       0.00200000 </v>
   <v>       0.00200000 </v>
   <v>       0.00200000 </v>
   <v>       0.00200000 </v>
   <v>       0.00200000 </v>
   <v>       0.00200000 </v>
   <v>       0.00200000 </v>
   <v>       0.00200000 </v>
   <v>       0.00200000 </v>
   <v>       0.00200000 </v>
   <v>       0.00200000 </v>
   <v>       0.00200000 </v>
   <v>       0.00200000 </v>
   <v>       0.00200000 </v>
   <v>       0.00200000 </v>
   <v>       0.00200000 </v>
   <v>       0.00200000 </v>
   <v>       0.00200000 </v>
   <v>       0.00200000 </v>
   <v>       0.00200000 </v>
   <v>       0.00200000 </v>
   <v>       0.00200000 </v>
   <v>       0.00200000 </v>
   <v>       0.00200000 </v>
   <v>       0.00200000 </v>
   <v>       0.00200000 </v>
   <v>       0.00200000 </v>
   <v>       0.00200000 </v>
   <v>       0.00200000 </v>
   <v>       0.00200000 </v>
   <v>       0.00200000 </v>
   <v>       0.00200000 </v>
   <v>       0.00200000 </v>
   <v>       0.00200000 </v>
   <v>       0.00200000 </v>
   <v>       0.00200000 </v>
   <v>       0.00200000 </v>
   <v>       0.00200000 </v>
   <v>       0.00200000 </v>
   <v>       0.00200000 </v>
   <v>       0.00200000 </v>
   <v>       0.00200000 </v>
   <v>       0.00200000 </v>
   <v>       0.00200000 </v>
   <v>       0.00200000 </v>
   <v>       0.00200000 </v>
   <v>       0.00200000 </v>
   <v>       0.00200000 </v>
   <v>       0.00200000 </v>
   <v>       0.00200000 </v>
   <v>       0.00200000 </v>
   <v>       0.00200000 </v>
   <v>       0.00200000 </v>
   <v>       0.00200000 </v>
   <v>       0.00200000 </v>
   <v>       0.00200000 </v>
   <v>       0.00200000 </v>
   <v>       0.00200000 </v>
   <v>       0.00200000 </v>
   <v>       0.00200000 </v>
   <v>       0.00200000 </v>
   <v>       0.00200000 </v>
   <v>       0.00200000 </v>
   <v>       0.00200000 </v>
   <v>       0.00200000 </v>
   <v>       0.00200000 </v>
   <v>       0.00200000 </v>
   <v>       0.00200000 </v>
   <v>       0.00200000 </v>
   <v>       0.00200000 </v>
   <v>       0.00200000 </v>
   <v>       0.00200000 </v>
   <v>       0.00200000 </v>
   <v>       0.00200000 </v>
   <v>       0.00200000 </v>
   <v>       0.00100000 </v>
   <v>       0.00200000 </v>
   <v>       0.00200000 </v>
   <v>       0.00200000 </v>
   <v>       0.00200000 </v>
   <v>       0.00100000 </v>
   <v>       0.00200000 </v>
   <v>       0.00200000 </v>
   <v>       0.00200000 </v>
   <v>       0.00200000 </v>
   <v>       0.00200000 </v>
   <v>       0.00200000 </v>
   <v>       0.00200000 </v>
   <v>       0.00200000 </v>
   <v>       0.00200000 </v>
   <v>       0.00200000 </v>
   <v>       0.00200000 </v>
   <v>       0.00200000 </v>
   <v>       0.00200000 </v>
   <v>       0.00200000 </v>
   <v>       0.00200000 </v>
   <v>       0.00200000 </v>
   <v>       0.00200000 </v>
   <v>       0.00200000 </v>
   <v>       0.00200000 </v>
   <v>       0.00200000 </v>
   <v>       0.00200000 </v>
   <v>       0.00200000 </v>
   <v>       0.00200000 </v>
   <v>       0.00200000 </v>
   <v>       0.00200000 </v>
   <v>       0.00200000 </v>
   <v>       0.00200000 </v>
   <v>       0.00200000 </v>
   <v>       0.00200000 </v>
   <v>       0.00200000 </v>
   <v>       0.00200000 </v>
   <v>       0.00200000 </v>
   <v>       0.00200000 </v>
   <v>       0.00200000 </v>
   <v>       0.00200000 </v>
   <v>       0.00200000 </v>
   <v>       0.00200000 </v>
   <v>       0.00200000 </v>
   <v>       0.00200000 </v>
   <v>       0.00200000 </v>
   <v>       0.00100000 </v>
   <v>       0.00200000 </v>
   <v>       0.00200000 </v>
   <v>       0.00200000 </v>
   <v>       0.00200000 </v>
   <v>       0.00100000 </v>
  </varray>
 </kpoints>
 <parameters>
  <separator name="general" >
   <i type="string" name="SYSTEM">unknown system</i>
   <i type="logical" name="LCOMPAT"> F  </i>
  </separator>
  <separator name="electronic" >
   <i type="string" name="PREC">accura</i>
   <i name="ENMAX">    520.00000000</i>
   <i name="ENAUG">    490.69000000</i>
   <i name="EDIFF">      0.00000001</i>
   <i type="int" name="IALGO">    38</i>
   <i type="int" name="IWAVPR">    11</i>
   <i type="int" name="NBANDS">    24</i>
   <i name="NELECT">     26.00000000</i>
   <i type="int" name="TURBO">     0</i>
   <i type="int" name="IRESTART">     0</i>
   <i type="int" name="NREBOOT">     0</i>
   <i type="int" name="NMIN">     0</i>
   <i name="EREF">      0.00000000</i>
   <separator name="electronic smearing" >
    <i type="int" name="ISMEAR">     0</i>
    <i name="SIGMA">      0.01000000</i>
    <i name="KSPACING">      0.50000000</i>
    <i type="logical" name="KGAMMA"> T  </i>
   </separator>
   <separator name="electronic projectors" >
    <i type="logical" name="LREAL"> F  </i>
    <v name="ROPT">      0.00000000      0.00000000      0.00000000</v>
    <i type="int" name="LMAXPAW">  -100</i>
    <i type="int" name="LMAXMIX">     2</i>
    <i type="logical" name="NLSPLINE"> F  </i>
   </separator>
   <separator name="electronic startup" >
    <i type="int" name="ISTART">     0</i>
    <i type="int" name="ICHARG">     2</i>
    <i type="int" name="INIWAV">     1</i>
   </separator>
   <separator name="electronic spin" >
    <i type="int" name="ISPIN">     1</i>
    <i type="logical" name="LNONCOLLINEAR"> F  </i>
    <v name="MAGMOM">      1.00000000      1.00000000      1.00000000      1.00000000</v>
    <i name="NUPDOWN">     -1.00000000</i>
    <i type="logical" name="LSORBIT"> F  </i>
    <v name="SAXIS">      0.00000000      0.00000000      1.00000000</v>
    <i type="logical" name="LSPIRAL"> F  </i>
    <v name="QSPIRAL">      0.00000000      0.00000000      0.00000000</v>
    <i type="logical" name="LZEROZ"> F  </i>
   </separator>
   <separator name="electronic exchange-correlation" >
    <i type="logical" name="LASPH"> F  </i>
    <i type="logical" name="LMETAGGA"> F  </i>
   </separator>
   <separator name="electronic convergence" >
    <i type="int" name="NELM">   100</i>
    <i type="int" name="NELMDL">    -5</i>
    <i type="int" name="NELMIN">     2</i>
    <i name="ENINI">    520.00000000</i>
    <separator name="electronic convergence detail" >
     <i type="logical" name="LDIAG"> T  </i>
     <i type="logical" name="LSUBROT"> F  </i>
     <i name="WEIMIN">      0.00100000</i>
     <i name="EBREAK">      0.00000000</i>
     <i name="DEPER">      0.30000000</i>
     <i type="int" name="NRMM">     4</i>
     <i name="TIME">      0.40000000</i>
    </separator>
   </separator>
   <separator name="electronic mixer" >
    <i name="AMIX">      0.40000000</i>
    <i name="BMIX">      1.00000000</i>
    <i name="AMIN">      0.10000000</i>
    <i name="AMIX_MAG">      1.60000000</i>
    <i name="BMIX_MAG">      1.00000000</i>
    <separator name="electronic mixer details" >
     <i type="int" name="IMIX">     4</i>
     <i type="logical" name="MIXFIRST"> F  </i>
     <i type="int" name="MAXMIX">   -45</i>
     <i name="WC">    100.00000000</i>
     <i type="int" name="INIMIX">     1</i>
     <i type="int" name="MIXPRE">     1</i>
     <i type="int" name="MREMOVE">     5</i>
    </separator>
   </separator>
   <separator name="electronic dipolcorrection" >
    <i type="logical" name="LDIPOL"> F  </i>
    <i type="logical" name="LMONO"> F  </i>
    <i type="int" name="IDIPOL">     0</i>
    <i name="EPSILON">      1.00000000</i>
    <v name="DIPOL">   -100.00000000   -100.00000000   -100.00000000</v>
    <i name="EFIELD">      0.00000000</i>
   </separator>
  </separator>
  <separator name="grids" >
   <i type="int" name="NGX">    54</i>
   <i type="int" name="NGY">    54</i>
   <i type="int" name="NGZ">    54</i>
   <i type="int" name="NGXF">   108</i>
   <i type="int" name="NGYF">   108</i>
   <i type="int" name="NGZF">   108</i>
   <i type="logical" name="ADDGRID"> F  </i>
  </separator>
  <separator name="ionic" >
   <i type="int" name="NSW">     1</i>
   <i type="int" name="IBRION">     8</i>
   <i type="int" name="MDALGO">     0</i>
   <i type="int" name="ISIF">     2</i>
   <i name="PSTRESS">      0.00000000</i>
   <i name="EDIFFG">      0.00000010</i>
   <i type="int" name="NFREE">     0</i>
   <i name="POTIM">      0.50000000</i>
   <i name="SMASS">     -3.00000000</i>
   <i name="SCALEE">      1.00000000</i>
  </separator>
  <separator name="ionic md" >
   <i name="TEBEG">      0.00010000</i>
   <i name="TEEND">      0.00010000</i>
   <i type="int" name="NBLOCK">     1</i>
   <i type="int" name="KBLOCK">     1</i>
   <i type="int" name="NPACO">   256</i>
   <i name="APACO">     16.00000000</i>
  </separator>
  <separator name="symmetry" >
   <i type="int" name="ISYM">     2</i>
   <i name="SYMPREC">      0.00000001</i>
  </separator>
  <separator name="dos" >
   <i type="int" name="LORBIT">     0</i>
   <v name="RWIGS">     -1.00000000     -1.00000000     -1.00000000</v>
   <i type="int" name="NEDOS">   301</i>
   <i name="EMIN">     10.00000000</i>
   <i name="EMAX">    -10.00000000</i>
   <i name="EFERMI">      0.00000000</i>
  </separator>
  <separator name="writing" >
   <i type="int" name="NWRITE">     2</i>
   <i type="logical" name="LWAVE"> F  </i>
   <i type="logical" name="LDOWNSAMPLE"> F  </i>
   <i type="logical" name="LCHARG"> T  </i>
   <i type="logical" name="LPARD"> F  </i>
   <i type="logical" name="LVTOT"> F  </i>
   <i type="logical" name="LVHAR"> F  </i>
   <i type="logical" name="LELF"> F  </i>
   <i type="logical" name="LOPTICS"> F  </i>
   <v name="STM">      0.00000000      0.00000000      0.00000000      0.00000000      0.00000000      0.00000000      0.00000000</v>
  </separator>
  <separator name="performance" >
   <i type="int" name="NPAR">     8</i>
   <i type="int" name="NSIM">     4</i>
   <i type="int" name="NBLK">    -1</i>
   <i type="logical" name="LPLANE"> T  </i>
   <i type="logical" name="LSCALAPACK"> T  </i>
   <i type="logical" name="LSCAAWARE"> F  </i>
   <i type="logical" name="LSCALU"> F  </i>
   <i type="logical" name="LASYNC"> F  </i>
   <i type="logical" name="LORBITALREAL"> F  </i>
  </separator>
  <separator name="miscellaneous" >
   <i type="int" name="IDIOT">     3</i>
   <i type="int" name="ISPECIAL">     0</i>
   <i type="logical" name="LMUSIC"> F  </i>
   <v name="POMASS">     26.98100000     69.72300000     74.92200000</v>
   <v name="DARWINR">      0.00000000      0.00000000      0.00000000</v>
   <v name="DARWINV">      1.00000000      1.00000000      1.00000000</v>
   <i type="logical" name="LCORR"> T  </i>
  </separator>
  <i type="logical" name="GGA_COMPAT"> T  </i>
  <i type="logical" name="LBERRY"> F  </i>
  <i type="int" name="ICORELEVEL">     0</i>
  <i type="logical" name="LDAU"> F  </i>
  <i type="int" name="I_CONSTRAINED_M">     0</i>
  <separator name="electronic exchange-correlation" >
   <i type="string" name="GGA">--</i>
   <i type="int" name="VOSKOWN">     0</i>
   <i type="logical" name="LHFCALC"> F  </i>
   <i type="string" name="PRECFOCK"></i>
   <i type="logical" name="LSYMGRAD"> F  </i>
   <i type="logical" name="LHFONE"> F  </i>
   <i type="logical" name="LRHFCALC"> F  </i>
   <i type="logical" name="LTHOMAS"> F  </i>
   <i type="logical" name="LMODELHF"> F  </i>
   <i name="ENCUT4O">     -1.00000000</i>
   <i type="int" name="EXXOEP">     0</i>
   <i type="int" name="FOURORBIT">     0</i>
   <i name="AEXX">      0.00000000</i>
   <i name="HFALPHA">      0.00000000</i>
   <i name="MCALPHA">      0.00000000</i>
   <i name="ALDAX">      1.00000000</i>
   <i name="AGGAX">      1.00000000</i>
   <i name="ALDAC">      1.00000000</i>
   <i name="AGGAC">      1.00000000</i>
   <i type="int" name="NKREDX">     1</i>
   <i type="int" name="NKREDY">     1</i>
   <i type="int" name="NKREDZ">     1</i>
   <i type="logical" name="SHIFTRED"> F  </i>
   <i type="logical" name="ODDONLY"> F  </i>
   <i type="logical" name="EVENONLY"> F  </i>
   <i type="int" name="LMAXFOCK">     0</i>
   <i type="int" name="NMAXFOCKAE">     0</i>
   <i type="logical" name="LFOCKAEDFT"> F  </i>
   <i name="HFSCREEN">      0.00000000</i>
   <i name="HFSCREENC">      0.00000000</i>
   <i type="int" name="NBANDSGWLOW">     0</i>
  </separator>
  <separator name="vdW DFT" >
   <i type="logical" name="LUSE_VDW"> F  </i>
   <i name="Zab_VDW">     -0.84910000</i>
   <i name="PARAM1">      0.12340000</i>
   <i name="PARAM2">      1.00000000</i>
   <i name="PARAM3">      0.00000000</i>
  </separator>
  <separator name="model GW" >
   <i type="int" name="MODEL_GW">     0</i>
   <i name="MODEL_EPS0">     13.68248423</i>
   <i name="MODEL_ALPHA">      1.00000000</i>
  </separator>
  <separator name="linear response parameters" >
   <i type="logical" name="LEPSILON"> T  </i>
   <i type="logical" name="LRPA"> F  </i>
   <i type="logical" name="LNABLA"> F  </i>
   <i type="logical" name="LVEL"> F  </i>
   <i type="int" name="KINTER">     0</i>
   <i name="CSHIFT">      0.10000000</i>
   <i name="OMEGAMAX">     -1.00000000</i>
   <i name="DEG_THRESHOLD">      0.00200000</i>
   <i name="RTIME">     -0.10000000</i>
   <i name="WPLASMAI">      0.00000000</i>
   <v name="DFIELD">      0.00000000      0.00000000      0.00000000</v>
   <v name="WPLASMA">      0.00000000      0.00000000      0.00000000      0.00000000      0.00000000      0.00000000      0.00000000      0.00000000      0.00000000</v>
  </separator>
  <separator name="orbital magnetization" >
   <i type="logical" name="NUCIND"> F  </i>
   <v name="MAGPOS">      0.00000000      0.00000000      0.00000000</v>
   <i type="logical" name="LNICSALL"> T  </i>
   <i type="logical" name="ORBITALMAG"> F  </i>
   <i type="logical" name="LMAGBLOCH"> F  </i>
   <i type="logical" name="LCHIMAG"> F  </i>
   <i type="logical" name="LGAUGE"> T  </i>
   <i type="int" name="MAGATOM">     0</i>
   <v name="MAGDIPOL">      0.00000000      0.00000000      0.00000000</v>
   <v name="AVECCONST">      0.00000000      0.00000000      0.00000000</v>
  </separator>
  <separator name="response functions" >
   <i type="logical" name="LADDER"> F  </i>
   <i type="logical" name="LRPAFORCE"> F  </i>
   <i type="logical" name="LFXC"> F  </i>
   <i type="logical" name="LHARTREE"> T  </i>
   <i type="int" name="IBSE">     0</i>
   <v type="int" name="KPOINT">    -1     0     0     0</v>
   <i type="logical" name="LTCTE"> F  </i>
   <i type="logical" name="LTETE"> F  </i>
   <i type="logical" name="LTRIPLET"> F  </i>
   <i type="logical" name="LFXCEPS"> F  </i>
   <i type="logical" name="LFXHEG"> F  </i>
   <i type="int" name="NATURALO">     2</i>
   <i type="logical" name="L2ORDER"> F  </i>
   <i type="logical" name="LMP2LT"> F  </i>
   <i type="logical" name="LUSEW"> F  </i>
   <i name="ENCUTGW">     -2.00000000</i>
   <i name="ENCUTGWSOFT">     -2.00000000</i>
   <i name="ENCUTLF">     -1.00000000</i>
   <i type="int" name="LMAXMP2">    -1</i>
   <i name="SCISSOR">      0.00000000</i>
   <i type="int" name="NOMEGA">     0</i>
   <i type="int" name="NOMEGAR">     0</i>
   <i type="int" name="NBANDSGW">    -1</i>
   <i type="int" name="NBANDSO">    -1</i>
   <i type="int" name="NBANDSV">    -1</i>
   <i type="int" name="NELM">   100</i>
   <i type="int" name="NELMHF">     1</i>
   <i type="int" name="DIM">     3</i>
   <i type="int" name="ANTIRES">     0</i>
   <i name="OMEGAMAX">    -30.00000000</i>
   <i name="OMEGAMIN">    -30.00000000</i>
   <i name="OMEGATL">   -200.00000000</i>
   <i type="int" name="OMEGAGRID">   140</i>
   <i name="CSHIFT">     -0.10000000</i>
   <i type="logical" name="SELFENERGY"> F  </i>
   <i type="logical" name="LSPECTRAL"> F  </i>
   <i type="logical" name="LSPECTRALGW"> F  </i>
   <i type="logical" name="LSINGLES"> F  </i>
   <i type="logical" name="LFERMIGW"> F  </i>
   <i type="logical" name="ODDONLYGW"> F  </i>
   <i type="logical" name="EVENONLYGW"> F  </i>
   <i type="int" name="NKREDLFX">     1</i>
   <i type="int" name="NKREDLFY">     1</i>
   <i type="int" name="NKREDLFZ">     1</i>
   <i type="int" name="MAXMEM">  2800</i>
   <i type="int" name="TELESCOPE">     0</i>
   <i type="int" name="TAUPAR">     1</i>
   <i type="int" name="OMEGAPAR">    -1</i>
   <i name="LAMBDA">      1.00000000</i>
  </separator>
  <separator name="External order field" >
   <i name="OFIELD_KAPPA">      0.00000000</i>
   <v name="OFIELD_K">      0.00000000      0.00000000      0.00000000</v>
   <i name="OFIELD_Q6_NEAR">      0.00000000</i>
   <i name="OFIELD_Q6_FAR">      0.00000000</i>
   <i name="OFIELD_A">      0.00000000</i>
  </separator>
 </parameters>
 <atominfo>
  <atoms>       4 </atoms>
  <types>       3 </types>
  <array name="atoms" >
   <dimension dim="1">ion</dimension>
   <field type="string">element</field>
   <field type="int">atomtype</field>
   <set>
    <rc><c>Al</c><c>   1</c></rc>
    <rc><c>Ga</c><c>   2</c></rc>
    <rc><c>As</c><c>   3</c></rc>
    <rc><c>As</c><c>   3</c></rc>
   </set>
  </array>
  <array name="atomtypes" >
   <dimension dim="1">type</dimension>
   <field type="int">atomspertype</field>
   <field type="string">element</field>
   <field>mass</field>
   <field>valence</field>
   <field type="string">pseudopotential</field>
   <set>
    <rc><c>   1</c><c>Al</c><c>     26.98100000</c><c>      3.00000000</c><c>  PAW_PBE Al 04Jan2001                  </c></rc>
    <rc><c>   1</c><c>Ga</c><c>     69.72300000</c><c>     13.00000000</c><c>  PAW_PBE Ga_d 06Jul2010                </c></rc>
    <rc><c>   2</c><c>As</c><c>     74.92200000</c><c>      5.00000000</c><c>  PAW_PBE As 22Sep2009                  </c></rc>
   </set>
  </array>
 </atominfo>
 <structure name="initialpos" >
  <crystal>
   <varray name="basis" >
    <v>       2.00566128      -1.15796908       6.54587780 </v>
    <v>       0.00000000       2.31593816       6.54587780 </v>
    <v>      -2.00566128      -1.15796908       6.54587780 </v>
   </varray>
   <i name="volume">     91.21656155 </i>
   <varray name="rec_basis" >
    <v>       0.24929434      -0.14393015       0.05092263 </v>
    <v>      -0.00000000       0.28786031       0.05092263 </v>
    <v>      -0.24929434      -0.14393015       0.05092263 </v>
   </varray>
  </crystal>
  <varray name="positions" >
   <v>       0.00024112       0.00024112       0.00024112 </v>
   <v>       0.49987109       0.49987109       0.49987101 </v>
   <v>       0.87515583       0.87515575       0.87515575 </v>
   <v>       0.37473110       0.37473110       0.37473102 </v>
  </varray>
 </structure>
 <calculation>
  <scstep>
   <time name="dav">   29.76   29.79</time>
   <time name="total">   29.86   29.89</time>
   <energy>
    <i name="alphaZ">     56.33600451 </i>
    <i name="ewald">  -1310.87352960 </i>
    <i name="hartreedc">   -916.14907326 </i>
    <i name="XCdc">     -5.91251287 </i>
    <i name="pawpsdc">   1963.48471638 </i>
    <i name="pawaedc">  -2222.20941747 </i>
    <i name="eentropy">     -0.00005158 </i>
    <i name="bandstr">     47.00867393 </i>
    <i name="atom">   2542.73804274 </i>
    <i name="e_fr_energy">    154.42285279 </i>
    <i name="e_wo_entrp">    154.42290437 </i>
    <i name="e_0_energy">    154.42287858 </i>
   </energy>
  </scstep>
  <scstep>
   <time name="dav">   30.72   30.76</time>
   <time name="total">   30.72   30.76</time>
   <energy>
    <i name="e_fr_energy">     -0.03365605 </i>
    <i name="e_wo_entrp">     -0.03365605 </i>
    <i name="e_0_energy">     -0.03365605 </i>
   </energy>
  </scstep>
  <scstep>
   <time name="dav">   34.47   34.50</time>
   <time name="total">   34.47   34.51</time>
   <energy>
    <i name="e_fr_energy">    -17.50314711 </i>
    <i name="e_wo_entrp">    -17.50314711 </i>
    <i name="e_0_energy">    -17.50314711 </i>
   </energy>
  </scstep>
  <scstep>
   <time name="dav">   32.45   32.49</time>
   <time name="total">   32.46   32.49</time>
   <energy>
    <i name="e_fr_energy">    -17.99919024 </i>
    <i name="e_wo_entrp">    -17.99919024 </i>
    <i name="e_0_energy">    -17.99919024 </i>
   </energy>
  </scstep>
  <scstep>
   <time name="dav">   36.02   36.05</time>
   <time name="total">   38.57   38.60</time>
   <energy>
    <i name="e_fr_energy">    -18.01160451 </i>
    <i name="e_wo_entrp">    -18.01160451 </i>
    <i name="e_0_energy">    -18.01160451 </i>
   </energy>
  </scstep>
  <scstep>
   <time name="dav">   40.05   40.09</time>
   <time name="total">   42.66   42.70</time>
   <energy>
    <i name="e_fr_energy">    -17.67078181 </i>
    <i name="e_wo_entrp">    -17.67078181 </i>
    <i name="e_0_energy">    -17.67078181 </i>
   </energy>
  </scstep>
  <scstep>
   <time name="dav">   33.76   33.79</time>
   <time name="total">   36.42   36.45</time>
   <energy>
    <i name="e_fr_energy">    -17.62054940 </i>
    <i name="e_wo_entrp">    -17.62054940 </i>
    <i name="e_0_energy">    -17.62054940 </i>
   </energy>
  </scstep>
  <scstep>
   <time name="dav">   32.62   32.65</time>
   <time name="total">   35.23   35.26</time>
   <energy>
    <i name="e_fr_energy">    -17.62180341 </i>
    <i name="e_wo_entrp">    -17.62180341 </i>
    <i name="e_0_energy">    -17.62180341 </i>
   </energy>
  </scstep>
  <scstep>
   <time name="dav">   33.95   33.98</time>
   <time name="total">   36.60   36.64</time>
   <energy>
    <i name="e_fr_energy">    -17.62280119 </i>
    <i name="e_wo_entrp">    -17.62280119 </i>
    <i name="e_0_energy">    -17.62280119 </i>
   </energy>
  </scstep>
  <scstep>
   <time name="dav">   35.55   35.60</time>
   <time name="total">   38.15   38.20</time>
   <energy>
    <i name="e_fr_energy">    -17.62293454 </i>
    <i name="e_wo_entrp">    -17.62293454 </i>
    <i name="e_0_energy">    -17.62293454 </i>
   </energy>
  </scstep>
  <scstep>
   <time name="dav">   32.72   32.75</time>
   <time name="total">   35.37   35.40</time>
   <energy>
    <i name="e_fr_energy">    -17.62305811 </i>
    <i name="e_wo_entrp">    -17.62305811 </i>
    <i name="e_0_energy">    -17.62305811 </i>
   </energy>
  </scstep>
  <scstep>
   <time name="dav">   33.66   33.70</time>
   <time name="total">   36.26   36.30</time>
   <energy>
    <i name="e_fr_energy">    -17.62306258 </i>
    <i name="e_wo_entrp">    -17.62306258 </i>
    <i name="e_0_energy">    -17.62306258 </i>
   </energy>
  </scstep>
  <scstep>
   <time name="dav">   32.93   32.96</time>
   <time name="total">   35.57   35.60</time>
   <energy>
    <i name="e_fr_energy">    -17.62306365 </i>
    <i name="e_wo_entrp">    -17.62306365 </i>
    <i name="e_0_energy">    -17.62306365 </i>
   </energy>
  </scstep>
  <scstep>
   <time name="dav">   33.78   33.81</time>
   <time name="total">   36.37   36.40</time>
   <energy>
    <i name="e_fr_energy">    -17.62306373 </i>
    <i name="e_wo_entrp">    -17.62306373 </i>
    <i name="e_0_energy">    -17.62306373 </i>
   </energy>
  </scstep>
  <scstep>
   <time name="dav">   31.73   31.76</time>
   <time name="total">   34.37   34.41</time>
   <energy>
    <i name="e_fr_energy">    -17.62306375 </i>
    <i name="e_wo_entrp">    -17.62306375 </i>
    <i name="e_0_energy">    -17.62306375 </i>
   </energy>
  </scstep>
  <scstep>
   <time name="dav">   25.71   25.74</time>
   <time name="total">   28.31   28.34</time>
   <energy>
    <i name="e_fr_energy">    -17.62306376 </i>
    <i name="e_wo_entrp">    -17.62306376 </i>
    <i name="e_0_energy">    -17.62306376 </i>
   </energy>
  </scstep>
  <scstep>
   <time name="dav">   22.35   22.38</time>
   <time name="total">   24.99   25.02</time>
   <energy>
    <i name="e_fr_energy">    -17.62306377 </i>
    <i name="e_wo_entrp">    -17.62306377 </i>
    <i name="e_0_energy">    -17.62306377 </i>
   </energy>
  </scstep>
  <scstep>
   <time name="dav">   22.05   22.08</time>
   <time name="total">   22.15   22.18</time>
   <energy>
    <i name="alphaZ">     56.33600451 </i>
    <i name="ewald">  -1310.87352960 </i>
    <i name="hartreedc">   -915.85544922 </i>
    <i name="XCdc">     -5.07961105 </i>
    <i name="pawpsdc">   2421.59322712 </i>
    <i name="pawaedc">  -2681.49688058 </i>
    <i name="eentropy">     -0.00000000 </i>
    <i name="bandstr">   -124.98486769 </i>
    <i name="atom">   2542.73804274 </i>
    <i name="e_fr_energy">    -17.62306378 </i>
    <i name="e_wo_entrp">    -17.62306378 </i>
    <i name="e_0_energy">    -17.62306378 </i>
   </energy>
  </scstep>
  <structure>
   <crystal>
    <varray name="basis" >
     <v>       2.00566128      -1.15796908       6.54587780 </v>
     <v>       0.00000000       2.31593816       6.54587780 </v>
     <v>      -2.00566128      -1.15796908       6.54587780 </v>
    </varray>
    <i name="volume">     91.21656155 </i>
    <varray name="rec_basis" >
     <v>       0.24929434      -0.14393015       0.05092263 </v>
     <v>      -0.00000000       0.28786031       0.05092263 </v>
     <v>      -0.24929434      -0.14393015       0.05092263 </v>
    </varray>
   </crystal>
   <varray name="positions" >
    <v>       0.00024112       0.00024112       0.00024112 </v>
    <v>       0.49987109       0.49987109       0.49987101 </v>
    <v>       0.87515583       0.87515575       0.87515575 </v>
    <v>       0.37473110       0.37473110       0.37473102 </v>
   </varray>
  </structure>
  <varray name="forces" >
   <v>       0.00000146       0.00000074       0.00108484 </v>
   <v>       0.00000005      -0.00000149       0.00134951 </v>
   <v>      -0.00000009       0.00000161       0.04161700 </v>
   <v>      -0.00000142      -0.00000086      -0.04405135 </v>
  </varray>
  <varray name="stress" >
   <v>      25.74366102      -0.00001892      -0.00001255 </v>
   <v>      -0.00001910      25.74364351       0.00000701 </v>
   <v>      -0.00001257       0.00000714      26.23808241 </v>
  </varray>
  <energy>
   <i name="e_fr_energy">    -17.62306378 </i>
   <i name="e_wo_entrp">    -17.62306378 </i>
   <i name="e_0_energy">     -0.00000000 </i>
  </energy>
  <scstep>
   <time name="total">   32.46   32.46</time>
   <energy>
    <i name="e_fr_energy">     -1.16928197 </i>
    <i name="e_wo_entrp">     -1.16928197 </i>
    <i name="e_0_energy">     -1.16928197 </i>
   </energy>
  </scstep>
  <scstep>
   <time name="total">   35.72   35.72</time>
   <energy>
    <i name="e_fr_energy">     -2.69698388 </i>
    <i name="e_wo_entrp">     -2.69698388 </i>
    <i name="e_0_energy">     -2.69698388 </i>
   </energy>
  </scstep>
  <scstep>
   <time name="total">   37.41   37.41</time>
   <energy>
    <i name="e_fr_energy">     -2.71075562 </i>
    <i name="e_wo_entrp">     -2.71075562 </i>
    <i name="e_0_energy">     -2.71075562 </i>
   </energy>
  </scstep>
  <scstep>
   <time name="total">   37.27   37.27</time>
   <energy>
    <i name="e_fr_energy">     -2.71079145 </i>
    <i name="e_wo_entrp">     -2.71079145 </i>
    <i name="e_0_energy">     -2.71079145 </i>
   </energy>
  </scstep>
  <scstep>
   <time name="total">   38.23   38.23</time>
   <energy>
    <i name="e_fr_energy">     -2.71081429 </i>
    <i name="e_wo_entrp">     -2.71081429 </i>
    <i name="e_0_energy">     -2.71081429 </i>
   </energy>
  </scstep>
  <scstep>
   <time name="total">   37.20   37.20</time>
   <energy>
    <i name="e_fr_energy">     -2.71081481 </i>
    <i name="e_wo_entrp">     -2.71081481 </i>
    <i name="e_0_energy">     -2.71081481 </i>
   </energy>
  </scstep>
  <scstep>
   <time name="total">   37.53   37.52</time>
   <energy>
    <i name="e_fr_energy">     -2.71081495 </i>
    <i name="e_wo_entrp">     -2.71081495 </i>
    <i name="e_0_energy">     -2.71081495 </i>
   </energy>
  </scstep>
  <scstep>
   <time name="total">   29.70   29.70</time>
   <energy>
    <i name="e_fr_energy">     -2.71081496 </i>
    <i name="e_wo_entrp">     -2.71081496 </i>
    <i name="e_0_energy">     -2.71081496 </i>
   </energy>
  </scstep>
  <scstep>
   <time name="total">   32.51   32.50</time>
   <energy>
    <i name="e_fr_energy">     -1.16611810 </i>
    <i name="e_wo_entrp">     -1.16611810 </i>
    <i name="e_0_energy">     -1.16611810 </i>
   </energy>
  </scstep>
  <scstep>
   <time name="total">   35.60   35.60</time>
   <energy>
    <i name="e_fr_energy">     -2.69724968 </i>
    <i name="e_wo_entrp">     -2.69724968 </i>
    <i name="e_0_energy">     -2.69724968 </i>
   </energy>
  </scstep>
  <scstep>
   <time name="total">   37.36   37.36</time>
   <energy>
    <i name="e_fr_energy">     -2.71076743 </i>
    <i name="e_wo_entrp">     -2.71076743 </i>
    <i name="e_0_energy">     -2.71076743 </i>
   </energy>
  </scstep>
  <scstep>
   <time name="total">   37.14   37.14</time>
   <energy>
    <i name="e_fr_energy">     -2.71080235 </i>
    <i name="e_wo_entrp">     -2.71080235 </i>
    <i name="e_0_energy">     -2.71080235 </i>
   </energy>
  </scstep>
  <scstep>
   <time name="total">   38.17   38.17</time>
   <energy>
    <i name="e_fr_energy">     -2.71082425 </i>
    <i name="e_wo_entrp">     -2.71082425 </i>
    <i name="e_0_energy">     -2.71082425 </i>
   </energy>
  </scstep>
  <scstep>
   <time name="total">   37.26   37.25</time>
   <energy>
    <i name="e_fr_energy">     -2.71082478 </i>
    <i name="e_wo_entrp">     -2.71082478 </i>
    <i name="e_0_energy">     -2.71082478 </i>
   </energy>
  </scstep>
  <scstep>
   <time name="total">   37.35   37.35</time>
   <energy>
    <i name="e_fr_energy">     -2.71082491 </i>
    <i name="e_wo_entrp">     -2.71082491 </i>
    <i name="e_0_energy">     -2.71082491 </i>
   </energy>
  </scstep>
  <scstep>
   <time name="total">   29.42   29.42</time>
   <energy>
    <i name="e_fr_energy">     -2.71082492 </i>
    <i name="e_wo_entrp">     -2.71082492 </i>
    <i name="e_0_energy">     -2.71082492 </i>
   </energy>
  </scstep>
  <scstep>
   <time name="total">   31.76   31.76</time>
   <energy>
    <i name="e_fr_energy">     -1.46821997 </i>
    <i name="e_wo_entrp">     -1.46821997 </i>
    <i name="e_0_energy">     -1.46821997 </i>
   </energy>
  </scstep>
  <scstep>
   <time name="total">   35.72   35.72</time>
   <energy>
    <i name="e_fr_energy">     -2.71801843 </i>
    <i name="e_wo_entrp">     -2.71801843 </i>
    <i name="e_0_energy">     -2.71801843 </i>
   </energy>
  </scstep>
  <scstep>
   <time name="total">   37.40   37.40</time>
   <energy>
    <i name="e_fr_energy">     -2.72720809 </i>
    <i name="e_wo_entrp">     -2.72720809 </i>
    <i name="e_0_energy">     -2.72720809 </i>
   </energy>
  </scstep>
  <scstep>
   <time name="total">   37.15   37.15</time>
   <energy>
    <i name="e_fr_energy">     -2.72724099 </i>
    <i name="e_wo_entrp">     -2.72724099 </i>
    <i name="e_0_energy">     -2.72724099 </i>
   </energy>
  </scstep>
  <scstep>
   <time name="total">   37.95   37.95</time>
   <energy>
    <i name="e_fr_energy">     -2.72725645 </i>
    <i name="e_wo_entrp">     -2.72725645 </i>
    <i name="e_0_energy">     -2.72725645 </i>
   </energy>
  </scstep>
  <scstep>
   <time name="total">   37.20   37.20</time>
   <energy>
    <i name="e_fr_energy">     -2.72725697 </i>
    <i name="e_wo_entrp">     -2.72725697 </i>
    <i name="e_0_energy">     -2.72725697 </i>
   </energy>
  </scstep>
  <scstep>
   <time name="total">   37.71   37.71</time>
   <energy>
    <i name="e_fr_energy">     -2.72725703 </i>
    <i name="e_wo_entrp">     -2.72725703 </i>
    <i name="e_0_energy">     -2.72725703 </i>
   </energy>
  </scstep>
  <scstep>
   <time name="total">   30.56   30.56</time>
   <energy>
    <i name="e_fr_energy">     -2.72725704 </i>
    <i name="e_wo_entrp">     -2.72725704 </i>
    <i name="e_0_energy">     -2.72725704 </i>
   </energy>
  </scstep>
  <varray name="epsilon_rpa" >
   <v>      11.75528740       0.00000174      -0.00000900 </v>
   <v>      -0.00004468      11.75532676      -0.00000019 </v>
   <v>      -0.00003442      -0.00003898      11.82052895 </v>
  </varray>
  <kpoints>
   <generation param="Gamma">
    <v type="int" name="divisions">      10       10       10 </v>
    <v name="usershift">      0.00000000       0.00000000       0.00000000 </v>
    <v name="genvec1">      0.10000000      -0.00000000      -0.00000000 </v>
    <v name="genvec2">     -0.00000000       0.10000000      -0.00000000 </v>
    <v name="genvec3">     -0.00000000      -0.00000000       0.10000000 </v>
    <v name="shift">      0.00000000       0.00000000       0.00000000 </v>
   </generation>
   <varray name="kpointlist" >
    <v>       0.00000000       0.00000000       0.00000000 </v>
    <v>       0.10000000      -0.00000000       0.00000000 </v>
    <v>       0.20000000      -0.00000000       0.00000000 </v>
    <v>       0.30000000      -0.00000000      -0.00000000 </v>
    <v>       0.40000000      -0.00000000       0.00000000 </v>
    <v>       0.50000000       0.00000000       0.00000000 </v>
    <v>      -0.00000000       0.10000000      -0.00000000 </v>
    <v>       0.10000000       0.10000000       0.00000000 </v>
    <v>       0.20000000       0.10000000       0.00000000 </v>
    <v>       0.30000000       0.10000000      -0.00000000 </v>
    <v>       0.40000000       0.10000000       0.00000000 </v>
    <v>       0.50000000       0.10000000       0.00000000 </v>
    <v>      -0.40000000       0.10000000      -0.00000000 </v>
    <v>      -0.30000000       0.10000000       0.00000000 </v>
    <v>      -0.20000000       0.10000000      -0.00000000 </v>
    <v>      -0.10000000       0.10000000      -0.00000000 </v>
    <v>      -0.00000000       0.20000000      -0.00000000 </v>
    <v>       0.10000000       0.20000000      -0.00000000 </v>
    <v>       0.20000000       0.20000000      -0.00000000 </v>
    <v>       0.30000000       0.20000000      -0.00000000 </v>
    <v>       0.40000000       0.20000000       0.00000000 </v>
    <v>       0.50000000       0.20000000       0.00000000 </v>
    <v>      -0.40000000       0.20000000      -0.00000000 </v>
    <v>      -0.30000000       0.20000000       0.00000000 </v>
    <v>      -0.20000000       0.20000000      -0.00000000 </v>
    <v>      -0.10000000       0.20000000       0.00000000 </v>
    <v>      -0.00000000       0.30000000      -0.00000000 </v>
    <v>       0.10000000       0.30000000      -0.00000000 </v>
    <v>       0.20000000       0.30000000       0.00000000 </v>
    <v>       0.30000000       0.30000000      -0.00000000 </v>
    <v>       0.40000000       0.30000000       0.00000000 </v>
    <v>       0.50000000       0.30000000      -0.00000000 </v>
    <v>      -0.40000000       0.30000000      -0.00000000 </v>
    <v>      -0.30000000       0.30000000      -0.00000000 </v>
    <v>      -0.20000000       0.30000000      -0.00000000 </v>
    <v>      -0.10000000       0.30000000      -0.00000000 </v>
    <v>      -0.00000000       0.40000000      -0.00000000 </v>
[...]
       <r>   13.1432    0.0000 </r>
       <r>   13.5492    0.0000 </r>
       <r>   13.8578    0.0000 </r>
       <r>   14.4860    0.0000 </r>
      </set>
      <set comment="kpoint 501">
       <r>  -10.8004    1.0000 </r>
       <r>  -10.7424    1.0000 </r>
       <r>  -10.7208    1.0000 </r>
       <r>  -10.6812    1.0000 </r>
       <r>  -10.6695    1.0000 </r>
       <r>   -7.3110    1.0000 </r>
       <r>   -6.8232    1.0000 </r>
       <r>   -1.4736    1.0000 </r>
       <r>   -0.8220    1.0000 </r>
       <r>    1.5112    1.0000 </r>
       <r>    1.8259    1.0000 </r>
       <r>    2.1746    1.0000 </r>
       <r>    3.1251    1.0000 </r>
       <r>    5.7505    0.0000 </r>
       <r>    6.2960    0.0000 </r>
       <r>    6.9817    0.0000 </r>
       <r>    8.6359    0.0000 </r>
       <r>    8.6808    0.0000 </r>
       <r>   10.7712    0.0000 </r>
       <r>   11.2292    0.0000 </r>
       <r>   11.6401    0.0000 </r>
       <r>   12.3785    0.0000 </r>
       <r>   13.3549    0.0000 </r>
       <r>   13.7456    0.0000 </r>
      </set>
      <set comment="kpoint 502">
       <r>  -10.7913    1.0000 </r>
       <r>  -10.7425    1.0000 </r>
       <r>  -10.7279    1.0000 </r>
       <r>  -10.6774    1.0000 </r>
       <r>  -10.6716    1.0000 </r>
       <r>   -7.6352    1.0000 </r>
       <r>   -7.2378    1.0000 </r>
       <r>   -0.7391    1.0000 </r>
       <r>    0.0732    1.0000 </r>
       <r>    1.8534    1.0000 </r>
       <r>    2.0065    1.0000 </r>
       <r>    2.2707    1.0000 </r>
       <r>    3.3559    1.0000 </r>
       <r>    6.3543    0.0000 </r>
       <r>    6.9208    0.0000 </r>
       <r>    7.8255    0.0000 </r>
       <r>    8.6163    0.0000 </r>
       <r>    8.6689    0.0000 </r>
       <r>    9.5529    0.0000 </r>
       <r>    9.7656    0.0000 </r>
       <r>   10.3062    0.0000 </r>
       <r>   11.5262    0.0000 </r>
       <r>   12.8116    0.0000 </r>
       <r>   13.7506    0.0000 </r>
      </set>
      <set comment="kpoint 503">
       <r>  -10.7873    1.0000 </r>
       <r>  -10.7391    1.0000 </r>
       <r>  -10.7343    1.0000 </r>
       <r>  -10.6741    1.0000 </r>
       <r>  -10.6725    1.0000 </r>
       <r>   -7.8548    1.0000 </r>
       <r>   -7.5219    1.0000 </r>
       <r>   -0.3413    1.0000 </r>
       <r>    0.4516    1.0000 </r>
       <r>    2.4248    1.0000 </r>
       <r>    2.7834    1.0000 </r>
       <r>    2.8258    1.0000 </r>
       <r>    3.4773    1.0000 </r>
       <r>    6.1943    0.0000 </r>
       <r>    6.7815    0.0000 </r>
       <r>    8.0022    0.0000 </r>
       <r>    8.4559    0.0000 </r>
       <r>    8.5162    0.0000 </r>
       <r>    9.2374    0.0000 </r>
       <r>    9.6038    0.0000 </r>
       <r>    9.9191    0.0000 </r>
       <r>   11.6532    0.0000 </r>
       <r>   12.0627    0.0000 </r>
       <r>   13.0808    0.0000 </r>
      </set>
      <set comment="kpoint 504">
       <r>  -10.7868    1.0000 </r>
       <r>  -10.7369    1.0000 </r>
       <r>  -10.7369    1.0000 </r>
       <r>  -10.6727    1.0000 </r>
       <r>  -10.6727    1.0000 </r>
       <r>   -7.9307    1.0000 </r>
       <r>   -7.6223    1.0000 </r>
       <r>   -0.2063    1.0000 </r>
       <r>    0.4135    1.0000 </r>
       <r>    3.1196    1.0000 </r>
       <r>    3.1196    1.0000 </r>
       <r>    3.4074    1.0000 </r>
       <r>    3.4074    1.0000 </r>
       <r>    5.4811    0.0000 </r>
       <r>    6.1949    0.0000 </r>
       <r>    8.4918    0.0000 </r>
       <r>    8.4918    0.0000 </r>
       <r>    8.6508    0.0000 </r>
       <r>    8.6508    0.0000 </r>
       <r>    9.7068    0.0000 </r>
       <r>   10.3112    0.0000 </r>
       <r>   12.2165    0.0000 </r>
       <r>   12.2165    0.0000 </r>
       <r>   12.7310    0.0000 </r>
      </set>
     </set>
    </set>
   </array>
  </eigenvalues>
  <separator name="orbital magnetization" >
   <v name="MAGDIPOLOUT">      0.00000000      0.00000000      0.00000000</v>
  </separator>
  <dos>
   <i name="efermi">      3.90081886 </i>
   <total>
    <array>
     <dimension dim="1">gridpoints</dimension>
     <dimension dim="2">spin</dimension>
     <field>energy</field>
     <field>total</field>
     <field>integrated</field>
     <set>
      <set comment="spin 1">
       <r>   -12.1284     0.0000     0.0000 </r>
       <r>   -12.0319     0.0000     0.0000 </r>
       <r>   -11.9355     0.0000     0.0000 </r>
       <r>   -11.8391     0.0000     0.0000 </r>
       <r>   -11.7427     0.0000     0.0000 </r>
       <r>   -11.6463     0.0000     0.0000 </r>
       <r>   -11.5499     0.0000     0.0000 </r>
       <r>   -11.4534     0.0000     0.0000 </r>
       <r>   -11.3570     0.0000     0.0000 </r>
       <r>   -11.2606     0.0000     0.0000 </r>
       <r>   -11.1642     0.0000     0.0000 </r>
       <r>   -11.0678     0.0000     0.0000 </r>
       <r>   -10.9714     0.0000     0.0000 </r>
       <r>   -10.8749     0.0000     0.0000 </r>
       <r>   -10.7785    20.3708     1.9641 </r>
       <r>   -10.6821    51.2064     6.9371 </r>
       <r>   -10.5857     0.0000    10.0000 </r>
       <r>   -10.4893     0.0000    10.0000 </r>
       <r>   -10.3929     0.0000    10.0000 </r>
       <r>   -10.2965     0.0000    10.0000 </r>
       <r>   -10.2000     0.0000    10.0000 </r>
       <r>   -10.1036     0.0000    10.0000 </r>
       <r>   -10.0072     0.0000    10.0000 </r>
       <r>    -9.9108     0.0000    10.0000 </r>
       <r>    -9.8144     0.0000    10.0000 </r>
       <r>    -9.7180     0.0000    10.0000 </r>
       <r>    -9.6215     0.0000    10.0000 </r>
       <r>    -9.5251     0.0000    10.0000 </r>
       <r>    -9.4287     0.0000    10.0000 </r>
       <r>    -9.3323     0.0000    10.0000 </r>
       <r>    -9.2359     0.0000    10.0000 </r>
       <r>    -9.1395     0.0000    10.0000 </r>
       <r>    -9.0430     0.0000    10.0000 </r>
       <r>    -8.9466     0.0000    10.0000 </r>
       <r>    -8.8502     0.0000    10.0000 </r>
       <r>    -8.7538     0.0000    10.0000 </r>
       <r>    -8.6574     0.0000    10.0000 </r>
       <r>    -8.5610     0.0000    10.0000 </r>
       <r>    -8.4645     0.0000    10.0000 </r>
       <r>    -8.3681     0.0622    10.0060 </r>
       <r>    -8.2717     0.3825    10.0429 </r>
       <r>    -8.1753     0.2773    10.0728 </r>
       <r>    -8.0789     0.4978    10.1220 </r>
       <r>    -7.9825     0.9224    10.2109 </r>
       <r>    -7.8860     0.5045    10.2706 </r>
       <r>    -7.7896     0.3082    10.3018 </r>
       <r>    -7.6932     1.1178    10.4400 </r>
       <r>    -7.5968     1.0165    10.5380 </r>
       <r>    -7.5004     0.6484    10.6245 </r>
       <r>    -7.4040     0.2893    10.6779 </r>
       <r>    -7.3076     1.5137    10.8321 </r>
       <r>    -7.2111     1.1801    11.0278 </r>
       <r>    -7.1147     1.0048    11.1469 </r>
       <r>    -7.0183     1.8119    11.3447 </r>
       <r>    -6.9219     1.0073    11.4631 </r>
       <r>    -6.8255     3.2402    11.8226 </r>
       <r>    -6.7291     2.1584    12.0781 </r>
       <r>    -6.6326     3.4368    12.4535 </r>
       <r>    -6.5362     1.5372    12.6482 </r>
       <r>    -6.4398     2.8175    12.9997 </r>
       <r>    -6.3434     2.7193    13.2844 </r>
       <r>    -6.2470     2.8257    13.6184 </r>
       <r>    -6.1506     2.8770    13.9954 </r>
       <r>    -6.0541     0.0000    14.0000 </r>
       <r>    -5.9577     0.0000    14.0000 </r>
       <r>    -5.8613     0.0000    14.0000 </r>
       <r>    -5.7649     0.0000    14.0000 </r>
       <r>    -5.6685     0.0000    14.0000 </r>
       <r>    -5.5721     0.0000    14.0000 </r>
       <r>    -5.4756     0.0000    14.0000 </r>
       <r>    -5.3792     0.0000    14.0000 </r>
       <r>    -5.2828     0.0000    14.0000 </r>
       <r>    -5.1864     0.0000    14.0000 </r>
       <r>    -5.0900     0.0000    14.0000 </r>
       <r>    -4.9936     0.0000    14.0000 </r>
       <r>    -4.8972     0.0000    14.0000 </r>
       <r>    -4.8007     0.0000    14.0000 </r>
       <r>    -4.7043     0.0000    14.0000 </r>
       <r>    -4.6079     0.0000    14.0000 </r>
       <r>    -4.5115     0.0000    14.0000 </r>
       <r>    -4.4151     0.0000    14.0000 </r>
       <r>    -4.3187     0.0000    14.0000 </r>
       <r>    -4.2222     0.0000    14.0000 </r>
       <r>    -4.1258     0.0000    14.0000 </r>
       <r>    -4.0294     0.0000    14.0000 </r>
       <r>    -3.9330     0.0000    14.0000 </r>
       <r>    -3.8366     0.0000    14.0000 </r>
       <r>    -3.7402     0.0000    14.0000 </r>
       <r>    -3.6437     0.0000    14.0000 </r>
       <r>    -3.5473     0.0000    14.0000 </r>
       <r>    -3.4509     0.0000    14.0000 </r>
       <r>    -3.3545     0.0000    14.0000 </r>
       <r>    -3.2581     0.0000    14.0000 </r>
       <r>    -3.1617     0.0000    14.0000 </r>
       <r>    -3.0652     0.0000    14.0000 </r>
       <r>    -2.9688     0.0000    14.0000 </r>
       <r>    -2.8724     0.0000    14.0000 </r>
       <r>    -2.7760     0.0000    14.0000 </r>
       <r>    -2.6796     0.0000    14.0000 </r>
       <r>    -2.5832     0.0789    14.0076 </r>
       <r>    -2.4867     0.4140    14.0579 </r>
       <r>    -2.3903     1.0709    14.2173 </r>
       <r>    -2.2939     1.7398    14.4138 </r>
       <r>    -2.1975     2.9638    14.6998 </r>
       <r>    -2.1011     2.2858    14.9666 </r>
       <r>    -2.0047     1.2548    15.0990 </r>
       <r>    -1.9083     1.9729    15.3122 </r>
       <r>    -1.8118     1.8773    15.4951 </r>
       <r>    -1.7154     0.8366    15.5927 </r>
       <r>    -1.6190     1.4900    15.7677 </r>
       <r>    -1.5226     1.3934    15.9264 </r>
       <r>    -1.4262     2.2207    16.1501 </r>
       <r>    -1.3298     1.9050    16.3837 </r>
       <r>    -1.2333     1.7837    16.5700 </r>
       <r>    -1.1369     1.0367    16.6700 </r>
       <r>    -1.0405     1.6116    16.8574 </r>
       <r>    -0.9441     0.5230    16.9084 </r>
       <r>    -0.8477     0.4905    16.9773 </r>
       <r>    -0.7513     0.7266    17.0601 </r>
       <r>    -0.6548     0.3946    17.1360 </r>
       <r>    -0.5584     0.7098    17.2184 </r>
       <r>    -0.4620     0.2548    17.2586 </r>
       <r>    -0.3656     0.4980    17.3300 </r>
       <r>    -0.2692     0.4981    17.3780 </r>
       <r>    -0.1728     0.2693    17.4040 </r>
       <r>    -0.0763     0.4978    17.4520 </r>
       <r>     0.0201     0.2152    17.4727 </r>
       <r>     0.1165     0.3647    17.5352 </r>
       <r>     0.2129     1.0979    17.6419 </r>
       <r>     0.3093     1.8023    17.8178 </r>
       <r>     0.4057     1.4464    17.9875 </r>
       <r>     0.5022     2.3157    18.2773 </r>
       <r>     0.5986     3.1085    18.6059 </r>
       <r>     0.6950     1.1954    18.8055 </r>
       <r>     0.7914     1.0944    18.9155 </r>
       <r>     0.8878     1.9434    19.1116 </r>
       <r>     0.9842     2.0458    19.3734 </r>
       <r>     1.0806     1.7731    19.5614 </r>
       <r>     1.1771     1.6167    19.7619 </r>
       <r>     1.2735     2.3244    20.0581 </r>
       <r>     1.3699     1.8408    20.2875 </r>
       <r>     1.4663     3.5024    20.6878 </r>
       <r>     1.5627     2.5529    21.0041 </r>
       <r>     1.6591     2.8644    21.3342 </r>
       <r>     1.7556     2.4069    21.6143 </r>
       <r>     1.8520     3.4845    21.9620 </r>
       <r>     1.9484     2.3555    22.2491 </r>
       <r>     2.0448     2.0681    22.4974 </r>
       <r>     2.1412     1.5509    22.7415 </r>
       <r>     2.2376     2.9588    23.0634 </r>
       <r>     2.3341     2.8005    23.4561 </r>
       <r>     2.4305     2.0629    23.6729 </r>
       <r>     2.5269     2.9209    24.0556 </r>
       <r>     2.6233     1.3689    24.1940 </r>
       <r>     2.7197     2.7862    24.5147 </r>
       <r>     2.8161     3.0994    24.8330 </r>
       <r>     2.9126     1.5546    25.0319 </r>
       <r>     3.0090     1.2072    25.1744 </r>
       <r>     3.1054     2.1114    25.3896 </r>
       <r>     3.2018     1.7029    25.5782 </r>
       <r>     3.2982     0.5034    25.6305 </r>
       <r>     3.3946     0.6645    25.7061 </r>
       <r>     3.4911     1.4237    25.8473 </r>
       <r>     3.5875     0.2517    25.8743 </r>
       <r>     3.6839     0.3725    25.9179 </r>
       <r>     3.7803     0.7052    25.9860 </r>
       <r>     3.8767     0.1452    26.0000 </r>
       <r>     3.9731     0.0000    26.0000 </r>
       <r>     4.0695     0.0000    26.0000 </r>
       <r>     4.1660     0.0000    26.0000 </r>
       <r>     4.2624     0.0000    26.0000 </r>
       <r>     4.3588     0.0000    26.0000 </r>
       <r>     4.4552     0.0000    26.0000 </r>
       <r>     4.5516     0.0000    26.0000 </r>
       <r>     4.6480     0.0000    26.0000 </r>
       <r>     4.7445     0.0191    26.0018 </r>
       <r>     4.8409     0.0000    26.0020 </r>
       <r>     4.9373     0.0000    26.0020 </r>
       <r>     5.0337     0.0415    26.0060 </r>
       <r>     5.1301     0.0164    26.0076 </r>
       <r>     5.2265     0.0414    26.0160 </r>
       <r>     5.3230     0.3989    26.0545 </r>
       <r>     5.4194     0.0415    26.0740 </r>
       <r>     5.5158     0.4951    26.1217 </r>
       <r>     5.6122     0.4772    26.1980 </r>
       <r>     5.7086     0.7307    26.2825 </r>
       <r>     5.8050     1.2691    26.4184 </r>
       <r>     5.9015     1.0946    26.5355 </r>
       <r>     5.9979     1.6900    26.7050 </r>
       <r>     6.0943     1.7035    26.8984 </r>
       <r>     6.1907     1.1995    27.0478 </r>
       <r>     6.2871     1.8856    27.2818 </r>
       <r>     6.3835     2.1484    27.5312 </r>
       <r>     6.4799     3.0051    27.8718 </r>
       <r>     6.5764     2.2660    28.1007 </r>
       <r>     6.6728     2.8397    28.4199 </r>
       <r>     6.7692     3.2187    28.7567 </r>
       <r>     6.8656     0.9443    28.9091 </r>
       <r>     6.9620     2.7764    29.2419 </r>
       <r>     7.0584     2.3465    29.5483 </r>
       <r>     7.1549     1.1512    29.7330 </r>
       <r>     7.2513     1.5613    29.9286 </r>
       <r>     7.3477     1.7773    30.1414 </r>
       <r>     7.4441     0.6130    30.2451 </r>
       <r>     7.5405     1.9599    30.4830 </r>
       <r>     7.6369     0.7324    30.5686 </r>
       <r>     7.7334     0.8701    30.7140 </r>
       <r>     7.8298     1.5878    30.8671 </r>
       <r>     7.9262     2.1002    31.0785 </r>
       <r>     8.0226     2.5958    31.3663 </r>
       <r>     8.1190     3.1763    31.8065 </r>
       <r>     8.2154     2.7769    32.1038 </r>
       <r>     8.3119     3.2790    32.4283 </r>
       <r>     8.4083     2.6007    32.7188 </r>
       <r>     8.5047     1.9917    33.0160 </r>
       <r>     8.6011     2.5798    33.2847 </r>
       <r>     8.6975     3.1272    33.6296 </r>
       <r>     8.7939     2.9694    33.9743 </r>
       <r>     8.8904     1.8316    34.2067 </r>
       <r>     8.9868     3.0661    34.5236 </r>
       <r>     9.0832     1.0546    34.6657 </r>
       <r>     9.1796     3.4077    35.0246 </r>
       <r>     9.2760     1.6352    35.1939 </r>
       <r>     9.3724     1.9464    35.4157 </r>
       <r>     9.4688     3.5475    35.8461 </r>
       <r>     9.5653     1.4909    36.1039 </r>
       <r>     9.6617     2.0022    36.3210 </r>
       <r>     9.7581     3.7855    36.6970 </r>
       <r>     9.8545     2.1356    36.9960 </r>
       <r>     9.9509     1.1345    37.1634 </r>
       <r>    10.0473     2.9194    37.4856 </r>
       <r>    10.1438     1.2270    37.6223 </r>
       <r>    10.2402     1.6323    37.8894 </r>
       <r>    10.3366     2.3797    38.1775 </r>
       <r>    10.4330     1.1237    38.2923 </r>
       <r>    10.5294     1.7716    38.4868 </r>
       <r>    10.6258     1.7195    38.6678 </r>
       <r>    10.7223     1.7416    38.8380 </r>
       <r>    10.8187     2.4991    39.0909 </r>
       <r>    10.9151     1.7548    39.2992 </r>
       <r>    11.0115     1.3678    39.4539 </r>
       <r>    11.1079     0.5466    39.5427 </r>
       <r>    11.2043     1.3939    39.7384 </r>
       <r>    11.3008     1.7769    39.9675 </r>
       <r>    11.3972     2.2356    40.2157 </r>
       <r>    11.4936     2.6142    40.5203 </r>
       <r>    11.5900     2.3077    40.7545 </r>
       <r>    11.6864     2.7590    41.0542 </r>
       <r>    11.7828     2.2897    41.3569 </r>
       <r>    11.8793     1.6140    41.5556 </r>
       <r>    11.9757     1.3755    41.7007 </r>
       <r>    12.0721     1.3245    41.8777 </r>
       <r>    12.1685     1.8913    42.0644 </r>
       <r>    12.2649     2.0205    42.3808 </r>
       <r>    12.3613     2.3777    42.6193 </r>
       <r>    12.4577     1.8776    42.8351 </r>
       <r>    12.5542     2.8012    43.1482 </r>
       <r>    12.6506     1.1288    43.3388 </r>
       <r>    12.7470     1.5420    43.5347 </r>
       <r>    12.8434     2.3741    43.7929 </r>
       <r>    12.9398     3.0470    44.0939 </r>
       <r>    13.0362     1.3074    44.2861 </r>
       <r>    13.1327     1.9461    44.5037 </r>
       <r>    13.2291     2.8308    44.8010 </r>
       <r>    13.3255     2.0980    45.0303 </r>
       <r>    13.4219     1.1748    45.1733 </r>
       <r>    13.5183     2.4281    45.4864 </r>
       <r>    13.6147     2.2815    45.7360 </r>
       <r>    13.7112     1.4047    45.9034 </r>
       <r>    13.8076     3.4529    46.2450 </r>
       <r>    13.9040     2.9200    46.5896 </r>
       <r>    14.0004     1.4686    46.7317 </r>
       <r>    14.0968     1.1191    46.8780 </r>
       <r>    14.1932     0.3737    46.9141 </r>
       <r>    14.2897     1.6058    47.0689 </r>
       <r>    14.3861     2.4585    47.3430 </r>
       <r>    14.4825     1.3165    47.4849 </r>
       <r>    14.5789     0.1445    47.5159 </r>
       <r>    14.6753     0.8702    47.6219 </r>
       <r>    14.7717     1.1163    47.7297 </r>
       <r>    14.8682     0.6223    47.8020 </r>
       <r>    14.9646     0.2489    47.8260 </r>
       <r>    15.0610     0.0000    47.8260 </r>
       <r>    15.1574     0.6843    47.8920 </r>
       <r>    15.2538     0.6296    47.9527 </r>
       <r>    15.3502     0.3665    47.9933 </r>
       <r>    15.4466     0.0000    47.9940 </r>
       <r>    15.5431     0.0622    48.0000 </r>
       <r>    15.6395     0.0000    48.0000 </r>
       <r>    15.7359     0.0000    48.0000 </r>
       <r>    15.8323     0.0000    48.0000 </r>
       <r>    15.9287     0.0000    48.0000 </r>
       <r>    16.0251     0.0000    48.0000 </r>
       <r>    16.1216     0.0000    48.0000 </r>
       <r>    16.2180     0.0000    48.0000 </r>
       <r>    16.3144     0.0000    48.0000 </r>
       <r>    16.4108     0.0000    48.0000 </r>
       <r>    16.5072     0.0000    48.0000 </r>
       <r>    16.6036     0.0000    48.0000 </r>
       <r>    16.7001     0.0000    48.0000 </r>
       <r>    16.7965     0.0000    48.0000 </r>
      </set>
     </set>
    </array>
   </total>
  </dos>
 </calculation>
 <structure name="finalpos" >
  <crystal>
   <varray name="basis" >
    <v>       2.00566128      -1.15796908       6.54587780 </v>
    <v>       0.00000000       2.31593816       6.54587780 </v>
    <v>      -2.00566128      -1.15796908       6.54587780 </v>
   </varray>
   <i name="volume">     91.21656155 </i>
   <varray name="rec_basis" >
    <v>       0.24929434      -0.14393015       0.05092263 </v>
    <v>      -0.00000000       0.28786031       0.05092263 </v>
    <v>      -0.24929434      -0.14393015       0.05092263 </v>
   </varray>
  </crystal>
  <varray name="positions" >
   <v>       0.00024112       0.00024112       0.00024112 </v>
   <v>       0.49987109       0.49987109       0.49987101 </v>
   <v>       0.87515583       0.87515575       0.87515575 </v>
   <v>       0.37473110       0.37473110       0.37473102 </v>
  </varray>
 </structure>
</modeling>
